-- Format      : ECLIPSE keywords (grid geometry and properties) (ASCII)
-- Exported by : Petrel 2011.2.6 (64-bit) Schlumberger
-- User name   : ag27710
-- Date        : Friday, March 22 2013 18:31:53
-- Project     : Petrel_rim_frac.pet
-- Grid        : 3D grid long f

PINCH                                  -- Generated : Petrel
  /

NOECHO                                 -- Generated : Petrel

GRIDUNIT                               -- Generated : Petrel
  FEET MAP /

SPECGRID                               -- Generated : Petrel
  28 35 43 1 F /

COORDSYS                               -- Generated : Petrel
  1 43 /

COORD                                  -- Generated : Petrel
  31508800.00 16906200.00 12640.00 31508800.00 16906200.00 15280.00
  31509575.00 16906200.00 12640.00 31509575.00 16906200.00 15280.00
  31510350.00 16906200.00 12640.00 31510350.00 16906200.00 15280.00
  31511125.00 16906200.00 12640.00 31511125.00 16906200.00 15280.00
  31511900.00 16906200.00 12640.00 31511900.00 16906200.00 15280.00
  31512675.00 16906200.00 12640.00 31512675.00 16906200.00 15280.00
  31513450.00 16906200.00 12640.00 31513450.00 16906200.00 15280.00
  31514225.00 16906200.00 12640.00 31514225.00 16906200.00 15280.00
  31515000.00 16906200.00 12640.00 31515000.00 16906200.00 15280.00
  31515775.00 16906200.00 12640.00 31515775.00 16906200.00 15280.00
  31516550.00 16906200.00 12640.00 31516550.00 16906200.00 15280.00
  31517325.00 16906200.00 12640.00 31517325.00 16906200.00 15280.00
  31518100.00 16906200.00 12640.00 31518100.00 16906200.00 15280.00
  31518875.00 16906200.00 12640.00 31518875.00 16906200.00 15280.00
  31519650.00 16906200.00 12640.00 31519650.00 16906200.00 15280.00
  31520425.00 16906200.00 12640.00 31520425.00 16906200.00 15280.00
  31521200.00 16906200.00 12640.00 31521200.00 16906200.00 15280.00
  31521975.00 16906200.00 12640.00 31521975.00 16906200.00 15280.00
  31522750.00 16906200.00 12640.00 31522750.00 16906200.00 15280.00
  31523525.00 16906200.00 12640.00 31523525.00 16906200.00 15280.00
  31524300.00 16906200.00 12640.00 31524300.00 16906200.00 15280.00
  31525075.00 16906200.00 12640.00 31525075.00 16906200.00 15280.00
  31525850.00 16906200.00 12640.00 31525850.00 16906200.00 15280.00
  31526625.00 16906200.00 12640.00 31526625.00 16906200.00 15280.00
  31527400.00 16906200.00 12640.00 31527400.00 16906200.00 15280.00
  31528175.00 16906200.00 12640.00 31528175.00 16906200.00 15280.00
  31528950.00 16906200.00 12640.00 31528950.00 16906200.00 15280.00
  31529725.00 16906200.00 12640.00 31529725.00 16906200.00 15280.00
  31530500.00 16906200.00 12640.00 31530500.00 16906200.00 15280.00
  31508800.00 16905425.00 12640.00 31508800.00 16905425.00 15280.00
  31509575.00 16905425.00 12640.00 31509575.00 16905425.00 15280.00
  31510350.00 16905425.00 12640.00 31510350.00 16905425.00 15280.00
  31511125.00 16905425.00 12640.00 31511125.00 16905425.00 15280.00
  31511900.00 16905425.00 12640.00 31511900.00 16905425.00 15280.00
  31512675.00 16905425.00 12640.00 31512675.00 16905425.00 15280.00
  31513450.00 16905425.00 12640.00 31513450.00 16905425.00 15280.00
  31514225.00 16905425.00 12640.00 31514225.00 16905425.00 15280.00
  31515000.00 16905425.00 12640.00 31515000.00 16905425.00 15280.00
  31515775.00 16905425.00 12640.00 31515775.00 16905425.00 15280.00
  31516550.00 16905425.00 12640.00 31516550.00 16905425.00 15280.00
  31517325.00 16905425.00 12640.00 31517325.00 16905425.00 15280.00
  31518100.00 16905425.00 12640.00 31518100.00 16905425.00 15280.00
  31518875.00 16905425.00 12640.00 31518875.00 16905425.00 15280.00
  31519650.00 16905425.00 12640.00 31519650.00 16905425.00 15280.00
  31520425.00 16905425.00 12640.00 31520425.00 16905425.00 15280.00
  31521200.00 16905425.00 12640.00 31521200.00 16905425.00 15280.00
  31521975.00 16905425.00 12640.00 31521975.00 16905425.00 15280.00
  31522750.00 16905425.00 12640.00 31522750.00 16905425.00 15280.00
  31523525.00 16905425.00 12640.00 31523525.00 16905425.00 15280.00
  31524300.00 16905425.00 12640.00 31524300.00 16905425.00 15280.00
  31525075.00 16905425.00 12640.00 31525075.00 16905425.00 15280.00
  31525850.00 16905425.00 12640.00 31525850.00 16905425.00 15280.00
  31526625.00 16905425.00 12640.00 31526625.00 16905425.00 15280.00
  31527400.00 16905425.00 12640.00 31527400.00 16905425.00 15280.00
  31528175.00 16905425.00 12640.00 31528175.00 16905425.00 15280.00
  31528950.00 16905425.00 12640.00 31528950.00 16905425.00 15280.00
  31529725.00 16905425.00 12640.00 31529725.00 16905425.00 15280.00
  31530500.00 16905425.00 12640.00 31530500.00 16905425.00 15280.00
  31508800.00 16904650.00 12640.00 31508800.00 16904650.00 15280.00
  31509575.00 16904650.00 12640.00 31509575.00 16904650.00 15280.00
  31510350.00 16904650.00 12640.00 31510350.00 16904650.00 15280.00
  31511125.00 16904650.00 12640.00 31511125.00 16904650.00 15280.00
  31511900.00 16904650.00 12640.00 31511900.00 16904650.00 15280.00
  31512675.00 16904650.00 12640.00 31512675.00 16904650.00 15280.00
  31513450.00 16904650.00 12640.00 31513450.00 16904650.00 15280.00
  31514225.00 16904650.00 12640.00 31514225.00 16904650.00 15280.00
  31515000.00 16904650.00 12640.00 31515000.00 16904650.00 15280.00
  31515775.00 16904650.00 12640.00 31515775.00 16904650.00 15280.00
  31516550.00 16904650.00 12640.00 31516550.00 16904650.00 15280.00
  31517325.00 16904650.00 12640.00 31517325.00 16904650.00 15280.00
  31518100.00 16904650.00 12640.00 31518100.00 16904650.00 15280.00
  31518875.00 16904650.00 12640.00 31518875.00 16904650.00 15280.00
  31519650.00 16904650.00 12640.00 31519650.00 16904650.00 15280.00
  31520425.00 16904650.00 12640.00 31520425.00 16904650.00 15280.00
  31521200.00 16904650.00 12640.00 31521200.00 16904650.00 15280.00
  31521975.00 16904650.00 12640.00 31521975.00 16904650.00 15280.00
  31522750.00 16904650.00 12640.00 31522750.00 16904650.00 15280.00
  31523525.00 16904650.00 12640.00 31523525.00 16904650.00 15280.00
  31524300.00 16904650.00 12640.00 31524300.00 16904650.00 15280.00
  31525075.00 16904650.00 12640.00 31525075.00 16904650.00 15280.00
  31525850.00 16904650.00 12640.00 31525850.00 16904650.00 15280.00
  31526625.00 16904650.00 12640.00 31526625.00 16904650.00 15280.00
  31527400.00 16904650.00 12640.00 31527400.00 16904650.00 15280.00
  31528175.00 16904650.00 12640.00 31528175.00 16904650.00 15280.00
  31528950.00 16904650.00 12640.00 31528950.00 16904650.00 15280.00
  31529725.00 16904650.00 12640.00 31529725.00 16904650.00 15280.00
  31530500.00 16904650.00 12640.00 31530500.00 16904650.00 15280.00
  31508800.00 16903875.00 12640.00 31508800.00 16903875.00 15280.00
  31509575.00 16903875.00 12640.00 31509575.00 16903875.00 15280.00
  31510350.00 16903875.00 12640.00 31510350.00 16903875.00 15280.00
  31511125.00 16903875.00 12640.00 31511125.00 16903875.00 15280.00
  31511900.00 16903875.00 12640.00 31511900.00 16903875.00 15280.00
  31512675.00 16903875.00 12640.00 31512675.00 16903875.00 15280.00
  31513450.00 16903875.00 12640.00 31513450.00 16903875.00 15280.00
  31514225.00 16903875.00 12640.00 31514225.00 16903875.00 15280.00
  31515000.00 16903875.00 12640.00 31515000.00 16903875.00 15280.00
  31515775.00 16903875.00 12640.00 31515775.00 16903875.00 15280.00
  31516550.00 16903875.00 12640.00 31516550.00 16903875.00 15280.00
  31517325.00 16903875.00 12640.00 31517325.00 16903875.00 15280.00
  31518100.00 16903875.00 12640.00 31518100.00 16903875.00 15280.00
  31518875.00 16903875.00 12640.00 31518875.00 16903875.00 15280.00
  31519650.00 16903875.00 12640.00 31519650.00 16903875.00 15280.00
  31520425.00 16903875.00 12640.00 31520425.00 16903875.00 15280.00
  31521200.00 16903875.00 12640.00 31521200.00 16903875.00 15280.00
  31521975.00 16903875.00 12640.00 31521975.00 16903875.00 15280.00
  31522750.00 16903875.00 12640.00 31522750.00 16903875.00 15280.00
  31523525.00 16903875.00 12640.00 31523525.00 16903875.00 15280.00
  31524300.00 16903875.00 12640.00 31524300.00 16903875.00 15280.00
  31525075.00 16903875.00 12640.00 31525075.00 16903875.00 15280.00
  31525850.00 16903875.00 12640.00 31525850.00 16903875.00 15280.00
  31526625.00 16903875.00 12640.00 31526625.00 16903875.00 15280.00
  31527400.00 16903875.00 12640.00 31527400.00 16903875.00 15280.00
  31528175.00 16903875.00 12640.00 31528175.00 16903875.00 15280.00
  31528950.00 16903875.00 12640.00 31528950.00 16903875.00 15280.00
  31529725.00 16903875.00 12640.00 31529725.00 16903875.00 15280.00
  31530500.00 16903875.00 12640.00 31530500.00 16903875.00 15280.00
  31508800.00 16903100.00 12640.00 31508800.00 16903100.00 15280.00
  31509575.00 16903100.00 12640.00 31509575.00 16903100.00 15280.00
  31510350.00 16903100.00 12640.00 31510350.00 16903100.00 15280.00
  31511125.00 16903100.00 12640.00 31511125.00 16903100.00 15280.00
  31511900.00 16903100.00 12640.00 31511900.00 16903100.00 15280.00
  31512675.00 16903100.00 12640.00 31512675.00 16903100.00 15280.00
  31513450.00 16903100.00 12640.00 31513450.00 16903100.00 15280.00
  31514225.00 16903100.00 12640.00 31514225.00 16903100.00 15280.00
  31515000.00 16903100.00 12640.00 31515000.00 16903100.00 15280.00
  31515775.00 16903100.00 12640.00 31515775.00 16903100.00 15280.00
  31516550.00 16903100.00 12640.00 31516550.00 16903100.00 15280.00
  31517325.00 16903100.00 12640.00 31517325.00 16903100.00 15280.00
  31518100.00 16903100.00 12640.00 31518100.00 16903100.00 15280.00
  31518875.00 16903100.00 12640.00 31518875.00 16903100.00 15280.00
  31519650.00 16903100.00 12640.00 31519650.00 16903100.00 15280.00
  31520425.00 16903100.00 12640.00 31520425.00 16903100.00 15280.00
  31521200.00 16903100.00 12640.00 31521200.00 16903100.00 15280.00
  31521975.00 16903100.00 12640.00 31521975.00 16903100.00 15280.00
  31522750.00 16903100.00 12640.00 31522750.00 16903100.00 15280.00
  31523525.00 16903100.00 12640.00 31523525.00 16903100.00 15280.00
  31524300.00 16903100.00 12640.00 31524300.00 16903100.00 15280.00
  31525075.00 16903100.00 12640.00 31525075.00 16903100.00 15280.00
  31525850.00 16903100.00 12640.00 31525850.00 16903100.00 15280.00
  31526625.00 16903100.00 12640.00 31526625.00 16903100.00 15280.00
  31527400.00 16903100.00 12640.00 31527400.00 16903100.00 15280.00
  31528175.00 16903100.00 12640.00 31528175.00 16903100.00 15280.00
  31528950.00 16903100.00 12640.00 31528950.00 16903100.00 15280.00
  31529725.00 16903100.00 12640.00 31529725.00 16903100.00 15280.00
  31530500.00 16903100.00 12640.00 31530500.00 16903100.00 15280.00
  31508800.00 16902325.00 12640.00 31508800.00 16902325.00 15280.00
  31509575.00 16902325.00 12640.00 31509575.00 16902325.00 15280.00
  31510350.00 16902325.00 12640.00 31510350.00 16902325.00 15280.00
  31511125.00 16902325.00 12640.00 31511125.00 16902325.00 15280.00
  31511900.00 16902325.00 12640.00 31511900.00 16902325.00 15280.00
  31512675.00 16902325.00 12640.00 31512675.00 16902325.00 15280.00
  31513450.00 16902325.00 12640.00 31513450.00 16902325.00 15280.00
  31514225.00 16902325.00 12640.00 31514225.00 16902325.00 15280.00
  31515000.00 16902325.00 12640.00 31515000.00 16902325.00 15280.00
  31515775.00 16902325.00 12640.00 31515775.00 16902325.00 15280.00
  31516550.00 16902325.00 12640.00 31516550.00 16902325.00 15280.00
  31517325.00 16902325.00 12640.00 31517325.00 16902325.00 15280.00
  31518100.00 16902325.00 12640.00 31518100.00 16902325.00 15280.00
  31518875.00 16902325.00 12640.00 31518875.00 16902325.00 15280.00
  31519650.00 16902325.00 12640.00 31519650.00 16902325.00 15280.00
  31520425.00 16902325.00 12640.00 31520425.00 16902325.00 15280.00
  31521200.00 16902325.00 12640.00 31521200.00 16902325.00 15280.00
  31521975.00 16902325.00 12640.00 31521975.00 16902325.00 15280.00
  31522750.00 16902325.00 12640.00 31522750.00 16902325.00 15280.00
  31523525.00 16902325.00 12640.00 31523525.00 16902325.00 15280.00
  31524300.00 16902325.00 12640.00 31524300.00 16902325.00 15280.00
  31525075.00 16902325.00 12640.00 31525075.00 16902325.00 15280.00
  31525850.00 16902325.00 12640.00 31525850.00 16902325.00 15280.00
  31526625.00 16902325.00 12640.00 31526625.00 16902325.00 15280.00
  31527400.00 16902325.00 12640.00 31527400.00 16902325.00 15280.00
  31528175.00 16902325.00 12640.00 31528175.00 16902325.00 15280.00
  31528950.00 16902325.00 12640.00 31528950.00 16902325.00 15280.00
  31529725.00 16902325.00 12640.00 31529725.00 16902325.00 15280.00
  31530500.00 16902325.00 12640.00 31530500.00 16902325.00 15280.00
  31508800.00 16901550.00 12640.00 31508800.00 16901550.00 15280.00
  31509575.00 16901550.00 12640.00 31509575.00 16901550.00 15280.00
  31510350.00 16901550.00 12640.00 31510350.00 16901550.00 15280.00
  31511125.00 16901550.00 12640.00 31511125.00 16901550.00 15280.00
  31511900.00 16901550.00 12640.00 31511900.00 16901550.00 15280.00
  31512675.00 16901550.00 12640.00 31512675.00 16901550.00 15280.00
  31513450.00 16901550.00 12640.00 31513450.00 16901550.00 15280.00
  31514225.00 16901550.00 12640.00 31514225.00 16901550.00 15280.00
  31515000.00 16901550.00 12640.00 31515000.00 16901550.00 15280.00
  31515775.00 16901550.00 12640.00 31515775.00 16901550.00 15280.00
  31516550.00 16901550.00 12640.00 31516550.00 16901550.00 15280.00
  31517325.00 16901550.00 12640.00 31517325.00 16901550.00 15280.00
  31518100.00 16901550.00 12640.00 31518100.00 16901550.00 15280.00
  31518875.00 16901550.00 12640.00 31518875.00 16901550.00 15280.00
  31519650.00 16901550.00 12640.00 31519650.00 16901550.00 15280.00
  31520425.00 16901550.00 12640.00 31520425.00 16901550.00 15280.00
  31521200.00 16901550.00 12640.00 31521200.00 16901550.00 15280.00
  31521975.00 16901550.00 12640.00 31521975.00 16901550.00 15280.00
  31522750.00 16901550.00 12640.00 31522750.00 16901550.00 15280.00
  31523525.00 16901550.00 12640.00 31523525.00 16901550.00 15280.00
  31524300.00 16901550.00 12640.00 31524300.00 16901550.00 15280.00
  31525075.00 16901550.00 12640.00 31525075.00 16901550.00 15280.00
  31525850.00 16901550.00 12640.00 31525850.00 16901550.00 15280.00
  31526625.00 16901550.00 12640.00 31526625.00 16901550.00 15280.00
  31527400.00 16901550.00 12640.00 31527400.00 16901550.00 15280.00
  31528175.00 16901550.00 12640.00 31528175.00 16901550.00 15280.00
  31528950.00 16901550.00 12640.00 31528950.00 16901550.00 15280.00
  31529725.00 16901550.00 12640.00 31529725.00 16901550.00 15280.00
  31530500.00 16901550.00 12640.00 31530500.00 16901550.00 15280.00
  31508800.00 16900775.00 12640.00 31508800.00 16900775.00 15280.00
  31509575.00 16900775.00 12640.00 31509575.00 16900775.00 15280.00
  31510350.00 16900775.00 12640.00 31510350.00 16900775.00 15280.00
  31511125.00 16900775.00 12640.00 31511125.00 16900775.00 15280.00
  31511900.00 16900775.00 12640.00 31511900.00 16900775.00 15280.00
  31512675.00 16900775.00 12640.00 31512675.00 16900775.00 15280.00
  31513450.00 16900775.00 12640.00 31513450.00 16900775.00 15280.00
  31514225.00 16900775.00 12640.00 31514225.00 16900775.00 15280.00
  31515000.00 16900775.00 12640.00 31515000.00 16900775.00 15280.00
  31515775.00 16900775.00 12640.00 31515775.00 16900775.00 15280.00
  31516550.00 16900775.00 12640.00 31516550.00 16900775.00 15280.00
  31517325.00 16900775.00 12640.00 31517325.00 16900775.00 15280.00
  31518100.00 16900775.00 12640.00 31518100.00 16900775.00 15280.00
  31518875.00 16900775.00 12640.00 31518875.00 16900775.00 15280.00
  31519650.00 16900775.00 12640.00 31519650.00 16900775.00 15280.00
  31520425.00 16900775.00 12640.00 31520425.00 16900775.00 15280.00
  31521200.00 16900775.00 12640.00 31521200.00 16900775.00 15280.00
  31521975.00 16900775.00 12640.00 31521975.00 16900775.00 15280.00
  31522750.00 16900775.00 12640.00 31522750.00 16900775.00 15280.00
  31523525.00 16900775.00 12640.00 31523525.00 16900775.00 15280.00
  31524300.00 16900775.00 12640.00 31524300.00 16900775.00 15280.00
  31525075.00 16900775.00 12640.00 31525075.00 16900775.00 15280.00
  31525850.00 16900775.00 12640.00 31525850.00 16900775.00 15280.00
  31526625.00 16900775.00 12640.00 31526625.00 16900775.00 15280.00
  31527400.00 16900775.00 12640.00 31527400.00 16900775.00 15280.00
  31528175.00 16900775.00 12640.00 31528175.00 16900775.00 15280.00
  31528950.00 16900775.00 12640.00 31528950.00 16900775.00 15280.00
  31529725.00 16900775.00 12640.00 31529725.00 16900775.00 15280.00
  31530500.00 16900775.00 12640.00 31530500.00 16900775.00 15280.00
  31508800.00 16900000.00 12640.00 31508800.00 16900000.00 15280.00
  31509575.00 16900000.00 12640.00 31509575.00 16900000.00 15280.00
  31510350.00 16900000.00 12640.00 31510350.00 16900000.00 15280.00
  31511125.00 16900000.00 12640.00 31511125.00 16900000.00 15280.00
  31511900.00 16900000.00 12640.00 31511900.00 16900000.00 15280.00
  31512675.00 16900000.00 12640.00 31512675.00 16900000.00 15280.00
  31513450.00 16900000.00 12640.00 31513450.00 16900000.00 15280.00
  31514225.00 16900000.00 12640.00 31514225.00 16900000.00 15280.00
  31515000.00 16900000.00 12640.00 31515000.00 16900000.00 15280.00
  31515775.00 16900000.00 12640.00 31515775.00 16900000.00 15280.00
  31516550.00 16900000.00 12640.00 31516550.00 16900000.00 15280.00
  31517325.00 16900000.00 12640.00 31517325.00 16900000.00 15280.00
  31518100.00 16900000.00 12640.00 31518100.00 16900000.00 15280.00
  31518875.00 16900000.00 12640.00 31518875.00 16900000.00 15280.00
  31519650.00 16900000.00 12640.00 31519650.00 16900000.00 15280.00
  31520425.00 16900000.00 12640.00 31520425.00 16900000.00 15280.00
  31521200.00 16900000.00 12640.00 31521200.00 16900000.00 15280.00
  31521975.00 16900000.00 12640.00 31521975.00 16900000.00 15280.00
  31522750.00 16900000.00 12640.00 31522750.00 16900000.00 15280.00
  31523525.00 16900000.00 12640.00 31523525.00 16900000.00 15280.00
  31524300.00 16900000.00 12640.00 31524300.00 16900000.00 15280.00
  31525075.00 16900000.00 12640.00 31525075.00 16900000.00 15280.00
  31525850.00 16900000.00 12640.00 31525850.00 16900000.00 15280.00
  31526625.00 16900000.00 12640.00 31526625.00 16900000.00 15280.00
  31527400.00 16900000.00 12640.00 31527400.00 16900000.00 15280.00
  31528175.00 16900000.00 12640.00 31528175.00 16900000.00 15280.00
  31528950.00 16900000.00 12640.00 31528950.00 16900000.00 15280.00
  31529725.00 16900000.00 12640.00 31529725.00 16900000.00 15280.00
  31530500.00 16900000.00 12640.00 31530500.00 16900000.00 15280.00
  31508800.00 16899225.00 12640.00 31508800.00 16899225.00 15280.00
  31509575.00 16899225.00 12640.00 31509575.00 16899225.00 15280.00
  31510350.00 16899225.00 12640.00 31510350.00 16899225.00 15280.00
  31511125.00 16899225.00 12640.00 31511125.00 16899225.00 15280.00
  31511900.00 16899225.00 12640.00 31511900.00 16899225.00 15280.00
  31512675.00 16899225.00 12640.00 31512675.00 16899225.00 15280.00
  31513450.00 16899225.00 12640.00 31513450.00 16899225.00 15280.00
  31514225.00 16899225.00 12640.00 31514225.00 16899225.00 15280.00
  31515000.00 16899225.00 12640.00 31515000.00 16899225.00 15280.00
  31515775.00 16899225.00 12640.00 31515775.00 16899225.00 15280.00
  31516550.00 16899225.00 12640.00 31516550.00 16899225.00 15280.00
  31517325.00 16899225.00 12640.00 31517325.00 16899225.00 15280.00
  31518100.00 16899225.00 12640.00 31518100.00 16899225.00 15280.00
  31518875.00 16899225.00 12640.00 31518875.00 16899225.00 15280.00
  31519650.00 16899225.00 12640.00 31519650.00 16899225.00 15280.00
  31520425.00 16899225.00 12640.00 31520425.00 16899225.00 15280.00
  31521200.00 16899225.00 12640.00 31521200.00 16899225.00 15280.00
  31521975.00 16899225.00 12640.00 31521975.00 16899225.00 15280.00
  31522750.00 16899225.00 12640.00 31522750.00 16899225.00 15280.00
  31523525.00 16899225.00 12640.00 31523525.00 16899225.00 15280.00
  31524300.00 16899225.00 12640.00 31524300.00 16899225.00 15280.00
  31525075.00 16899225.00 12640.00 31525075.00 16899225.00 15280.00
  31525850.00 16899225.00 12640.00 31525850.00 16899225.00 15280.00
  31526625.00 16899225.00 12640.00 31526625.00 16899225.00 15280.00
  31527400.00 16899225.00 12640.00 31527400.00 16899225.00 15280.00
  31528175.00 16899225.00 12640.00 31528175.00 16899225.00 15280.00
  31528950.00 16899225.00 12640.00 31528950.00 16899225.00 15280.00
  31529725.00 16899225.00 12640.00 31529725.00 16899225.00 15280.00
  31530500.00 16899225.00 12640.00 31530500.00 16899225.00 15280.00
  31508800.00 16898450.00 12640.00 31508800.00 16898450.00 15280.00
  31509575.00 16898450.00 12640.00 31509575.00 16898450.00 15280.00
  31510350.00 16898450.00 12640.00 31510350.00 16898450.00 15280.00
  31511125.00 16898450.00 12640.00 31511125.00 16898450.00 15280.00
  31511900.00 16898450.00 12640.00 31511900.00 16898450.00 15280.00
  31512675.00 16898450.00 12640.00 31512675.00 16898450.00 15280.00
  31513450.00 16898450.00 12640.00 31513450.00 16898450.00 15280.00
  31514225.00 16898450.00 12640.00 31514225.00 16898450.00 15280.00
  31515000.00 16898450.00 12640.00 31515000.00 16898450.00 15280.00
  31515775.00 16898450.00 12640.00 31515775.00 16898450.00 15280.00
  31516550.00 16898450.00 12640.00 31516550.00 16898450.00 15280.00
  31517325.00 16898450.00 12640.00 31517325.00 16898450.00 15280.00
  31518100.00 16898450.00 12640.00 31518100.00 16898450.00 15280.00
  31518875.00 16898450.00 12640.00 31518875.00 16898450.00 15280.00
  31519650.00 16898450.00 12640.00 31519650.00 16898450.00 15280.00
  31520425.00 16898450.00 12640.00 31520425.00 16898450.00 15280.00
  31521200.00 16898450.00 12640.00 31521200.00 16898450.00 15280.00
  31521975.00 16898450.00 12640.00 31521975.00 16898450.00 15280.00
  31522750.00 16898450.00 12640.00 31522750.00 16898450.00 15280.00
  31523525.00 16898450.00 12640.00 31523525.00 16898450.00 15280.00
  31524300.00 16898450.00 12640.00 31524300.00 16898450.00 15280.00
  31525075.00 16898450.00 12640.00 31525075.00 16898450.00 15280.00
  31525850.00 16898450.00 12640.00 31525850.00 16898450.00 15280.00
  31526625.00 16898450.00 12640.00 31526625.00 16898450.00 15280.00
  31527400.00 16898450.00 12640.00 31527400.00 16898450.00 15280.00
  31528175.00 16898450.00 12640.00 31528175.00 16898450.00 15280.00
  31528950.00 16898450.00 12640.00 31528950.00 16898450.00 15280.00
  31529725.00 16898450.00 12640.00 31529725.00 16898450.00 15280.00
  31530500.00 16898450.00 12640.00 31530500.00 16898450.00 15280.00
  31508800.00 16897675.00 12640.00 31508800.00 16897675.00 15280.00
  31509575.00 16897675.00 12640.00 31509575.00 16897675.00 15280.00
  31510350.00 16897675.00 12640.00 31510350.00 16897675.00 15280.00
  31511125.00 16897675.00 12640.00 31511125.00 16897675.00 15280.00
  31511900.00 16897675.00 12640.00 31511900.00 16897675.00 15280.00
  31512675.00 16897675.00 12640.00 31512675.00 16897675.00 15280.00
  31513450.00 16897675.00 12640.00 31513450.00 16897675.00 15280.00
  31514225.00 16897675.00 12640.00 31514225.00 16897675.00 15280.00
  31515000.00 16897675.00 12640.00 31515000.00 16897675.00 15280.00
  31515775.00 16897675.00 12640.00 31515775.00 16897675.00 15280.00
  31516550.00 16897675.00 12640.00 31516550.00 16897675.00 15280.00
  31517325.00 16897675.00 12640.00 31517325.00 16897675.00 15280.00
  31518100.00 16897675.00 12640.00 31518100.00 16897675.00 15280.00
  31518875.00 16897675.00 12640.00 31518875.00 16897675.00 15280.00
  31519650.00 16897675.00 12640.00 31519650.00 16897675.00 15280.00
  31520425.00 16897675.00 12640.00 31520425.00 16897675.00 15280.00
  31521200.00 16897675.00 12640.00 31521200.00 16897675.00 15280.00
  31521975.00 16897675.00 12640.00 31521975.00 16897675.00 15280.00
  31522750.00 16897675.00 12640.00 31522750.00 16897675.00 15280.00
  31523525.00 16897675.00 12640.00 31523525.00 16897675.00 15280.00
  31524300.00 16897675.00 12640.00 31524300.00 16897675.00 15280.00
  31525075.00 16897675.00 12640.00 31525075.00 16897675.00 15280.00
  31525850.00 16897675.00 12640.00 31525850.00 16897675.00 15280.00
  31526625.00 16897675.00 12640.00 31526625.00 16897675.00 15280.00
  31527400.00 16897675.00 12640.00 31527400.00 16897675.00 15280.00
  31528175.00 16897675.00 12640.00 31528175.00 16897675.00 15280.00
  31528950.00 16897675.00 12640.00 31528950.00 16897675.00 15280.00
  31529725.00 16897675.00 12640.00 31529725.00 16897675.00 15280.00
  31530500.00 16897675.00 12640.00 31530500.00 16897675.00 15280.00
  31508800.00 16896900.00 12640.00 31508800.00 16896900.00 15280.00
  31509575.00 16896900.00 12640.00 31509575.00 16896900.00 15280.00
  31510350.00 16896900.00 12640.00 31510350.00 16896900.00 15280.00
  31511125.00 16896900.00 12640.00 31511125.00 16896900.00 15280.00
  31511900.00 16896900.00 12640.00 31511900.00 16896900.00 15280.00
  31512675.00 16896900.00 12640.00 31512675.00 16896900.00 15280.00
  31513450.00 16896900.00 12640.00 31513450.00 16896900.00 15280.00
  31514225.00 16896900.00 12640.00 31514225.00 16896900.00 15280.00
  31515000.00 16896900.00 12640.00 31515000.00 16896900.00 15280.00
  31515775.00 16896900.00 12640.00 31515775.00 16896900.00 15280.00
  31516550.00 16896900.00 12640.00 31516550.00 16896900.00 15280.00
  31517325.00 16896900.00 12640.00 31517325.00 16896900.00 15280.00
  31518100.00 16896900.00 12640.00 31518100.00 16896900.00 15280.00
  31518875.00 16896900.00 12640.00 31518875.00 16896900.00 15280.00
  31519650.00 16896900.00 12640.00 31519650.00 16896900.00 15280.00
  31520425.00 16896900.00 12640.00 31520425.00 16896900.00 15280.00
  31521200.00 16896900.00 12640.00 31521200.00 16896900.00 15280.00
  31521975.00 16896900.00 12640.00 31521975.00 16896900.00 15280.00
  31522750.00 16896900.00 12640.00 31522750.00 16896900.00 15280.00
  31523525.00 16896900.00 12640.00 31523525.00 16896900.00 15280.00
  31524300.00 16896900.00 12640.00 31524300.00 16896900.00 15280.00
  31525075.00 16896900.00 12640.00 31525075.00 16896900.00 15280.00
  31525850.00 16896900.00 12640.00 31525850.00 16896900.00 15280.00
  31526625.00 16896900.00 12640.00 31526625.00 16896900.00 15280.00
  31527400.00 16896900.00 12640.00 31527400.00 16896900.00 15280.00
  31528175.00 16896900.00 12640.00 31528175.00 16896900.00 15280.00
  31528950.00 16896900.00 12640.00 31528950.00 16896900.00 15280.00
  31529725.00 16896900.00 12640.00 31529725.00 16896900.00 15280.00
  31530500.00 16896900.00 12640.00 31530500.00 16896900.00 15280.00
  31508800.00 16896125.00 12640.00 31508800.00 16896125.00 15280.00
  31509575.00 16896125.00 12640.00 31509575.00 16896125.00 15280.00
  31510350.00 16896125.00 12640.00 31510350.00 16896125.00 15280.00
  31511125.00 16896125.00 12640.00 31511125.00 16896125.00 15280.00
  31511900.00 16896125.00 12640.00 31511900.00 16896125.00 15280.00
  31512675.00 16896125.00 12640.00 31512675.00 16896125.00 15280.00
  31513450.00 16896125.00 12640.00 31513450.00 16896125.00 15280.00
  31514225.00 16896125.00 12640.00 31514225.00 16896125.00 15280.00
  31515000.00 16896125.00 12640.00 31515000.00 16896125.00 15280.00
  31515775.00 16896125.00 12640.00 31515775.00 16896125.00 15280.00
  31516550.00 16896125.00 12640.00 31516550.00 16896125.00 15280.00
  31517325.00 16896125.00 12640.00 31517325.00 16896125.00 15280.00
  31518100.00 16896125.00 12640.00 31518100.00 16896125.00 15280.00
  31518875.00 16896125.00 12640.00 31518875.00 16896125.00 15280.00
  31519650.00 16896125.00 12640.00 31519650.00 16896125.00 15280.00
  31520425.00 16896125.00 12640.00 31520425.00 16896125.00 15280.00
  31521200.00 16896125.00 12640.00 31521200.00 16896125.00 15280.00
  31521975.00 16896125.00 12640.00 31521975.00 16896125.00 15280.00
  31522750.00 16896125.00 12640.00 31522750.00 16896125.00 15280.00
  31523525.00 16896125.00 12640.00 31523525.00 16896125.00 15280.00
  31524300.00 16896125.00 12640.00 31524300.00 16896125.00 15280.00
  31525075.00 16896125.00 12640.00 31525075.00 16896125.00 15280.00
  31525850.00 16896125.00 12640.00 31525850.00 16896125.00 15280.00
  31526625.00 16896125.00 12640.00 31526625.00 16896125.00 15280.00
  31527400.00 16896125.00 12640.00 31527400.00 16896125.00 15280.00
  31528175.00 16896125.00 12640.00 31528175.00 16896125.00 15280.00
  31528950.00 16896125.00 12640.00 31528950.00 16896125.00 15280.00
  31529725.00 16896125.00 12640.00 31529725.00 16896125.00 15280.00
  31530500.00 16896125.00 12640.00 31530500.00 16896125.00 15280.00
  31508800.00 16895350.00 12640.00 31508800.00 16895350.00 15280.00
  31509575.00 16895350.00 12640.00 31509575.00 16895350.00 15280.00
  31510350.00 16895350.00 12640.00 31510350.00 16895350.00 15280.00
  31511125.00 16895350.00 12640.00 31511125.00 16895350.00 15280.00
  31511900.00 16895350.00 12640.00 31511900.00 16895350.00 15280.00
  31512675.00 16895350.00 12640.00 31512675.00 16895350.00 15280.00
  31513450.00 16895350.00 12640.00 31513450.00 16895350.00 15280.00
  31514225.00 16895350.00 12640.00 31514225.00 16895350.00 15280.00
  31515000.00 16895350.00 12640.00 31515000.00 16895350.00 15280.00
  31515775.00 16895350.00 12640.00 31515775.00 16895350.00 15280.00
  31516550.00 16895350.00 12640.00 31516550.00 16895350.00 15280.00
  31517325.00 16895350.00 12640.00 31517325.00 16895350.00 15280.00
  31518100.00 16895350.00 12640.00 31518100.00 16895350.00 15280.00
  31518875.00 16895350.00 12640.00 31518875.00 16895350.00 15280.00
  31519650.00 16895350.00 12640.00 31519650.00 16895350.00 15280.00
  31520425.00 16895350.00 12640.00 31520425.00 16895350.00 15280.00
  31521200.00 16895350.00 12640.00 31521200.00 16895350.00 15280.00
  31521975.00 16895350.00 12640.00 31521975.00 16895350.00 15280.00