-- Format      : ECLIPSE keywords (grid geometry and properties) (ASCII)
-- Exported by : Petrel 2011.2.6 (64-bit) Schlumberger
-- User name   : ag27710
-- Date        : Tuesday, November 13 2012 15:39:57
-- Project     : D-Island_2011.pet
-- Grid        : Sector model D-Island (20 x 24) new wells

GRIDUNIT                               -- Generated : Petrel
  METRES MAP /

SPECGRID                               -- Generated : Petrel
  20 24 43 1 F /

COORDSYS                               -- Generated : Petrel
  1 43 /

COORD                                  -- Generated : Petrel
  9593309.07 5146905.80 4054.17 9593309.07 5146905.80 4455.16 9593476.15
  5147072.88 4054.19 9593476.15 5147072.88 4458.55 9593643.23 5147239.96
  4050.83 9593643.23 5147239.96 4465.81 9593810.31 5147407.04 4046.18
  9593810.31 5147407.04 4475.73 9593977.39 5147574.12 4043.14 9593977.39
  5147574.12 4485.76 9594144.47 5147741.19 4043.49 9594144.47 5147741.19
  4494.31 9594311.55 5147908.27 4046.85 9594311.55 5147908.27 4501.93
  9594478.63 5148075.35 4051.38 9594478.63 5148075.35 4508.79 9594645.71
  5148242.43 4055.27 9594645.71 5148242.43 4514.72 9594812.79 5148409.51
  4056.45 9594812.79 5148409.51 4519.61 9594979.87 5148576.59 4055.00
  9594979.87 5148576.59 4523.52 9595146.94 5148743.67 4052.76 9595146.94
  5148743.67 4527.11 9595314.02 5148910.75 4051.09 9595314.02 5148910.75
  4530.81 9595481.10 5149077.83 4050.74 9595481.10 5149077.83 4534.78
  9595648.18 5149244.91 4051.43 9595648.18 5149244.91 4538.81 9595815.26
  5149411.99 4053.58 9595815.26 5149411.99 4542.07 9595982.34 5149579.07
  4058.92 9595982.34 5149579.07 4545.79 9596149.42 5149746.15 4067.95
  9596149.42 5149746.15 4552.69 9596316.50 5149913.23 4078.81 9596316.50
  5149913.23 4558.39 9596483.58 5150080.31 4089.60 9596483.58 5150080.31
  4562.36 9596650.66 5150247.39 4099.14 9596650.66 5150247.39 4567.47
  9593475.89 5146738.98 4048.39 9593475.89 5146738.98 4450.50 9593642.97
  5146906.06 4050.97 9593642.97 5146906.06 4455.26 9593810.05 5147073.14
  4049.81 9593810.05 5147073.14 4464.00 9593977.13 5147240.22 4045.26
  9593977.13 5147240.22 4474.22 9594144.20 5147407.30 4040.11 9594144.20
  5147407.30 4482.93 9594311.28 5147574.38 4036.91 9594311.28 5147574.38
  4488.63 9594478.36 5147741.46 4036.47 9594478.36 5147741.46 4493.05
  9594645.44 5147908.54 4038.95 9594645.44 5147908.54 4498.26 9594812.52
  5148075.62 4042.88 9594812.52 5148075.62 4503.93 9594979.60 5148242.70
  4045.65 9594979.60 5148242.70 4509.58 9595146.68 5148409.78 4046.19
  9595146.68 5148409.78 4514.76 9595313.76 5148576.85 4046.18 9595313.76
  5148576.85 4519.63 9595480.84 5148743.93 4047.00 9595480.84 5148743.93
  4524.90 9595647.92 5148911.01 4049.03 9595647.92 5148911.01 4530.93
  9595815.00 5149078.09 4052.24 9595815.00 5149078.09 4537.25 9595982.08
  5149245.17 4056.56 9595982.08 5149245.17 4542.95 9596149.16 5149412.25
  4062.27 9596149.16 5149412.25 4547.62 9596316.24 5149579.33 4070.34
  9596316.24 5149579.33 4553.23 9596483.32 5149746.41 4080.00 9596483.32
  5149746.41 4559.02 9596650.40 5149913.49 4090.25 9596650.40 5149913.49
  4564.19 9596817.48 5150080.57 4100.62 9596817.48 5150080.57 4569.74
  9593642.70 5146572.17 4043.09 9593642.70 5146572.17 4453.70 9593809.78
  5146739.24 4047.40 9593809.78 5146739.24 4459.38 9593976.86 5146906.32
  4048.41 9593976.86 5146906.32 4468.19 9594143.94 5147073.40 4045.36
  9594143.94 5147073.40 4476.67 9594311.02 5147240.48 4038.84 9594311.02
  5147240.48 4481.97 9594478.10 5147407.56 4032.09 9594478.10 5147407.56
  4484.20 9594645.18 5147574.64 4028.36 9594645.18 5147574.64 4485.75
  9594812.26 5147741.72 4028.22 9594812.26 5147741.72 4488.88 9594979.34
  5147908.80 4031.30 9594979.34 5147908.80 4493.80 9595146.42 5148075.88
  4035.30 9595146.42 5148075.88 4499.36 9595313.50 5148242.96 4038.63
  9595313.50 5148242.96 4504.93 9595480.58 5148410.04 4041.73 9595480.58
  5148410.04 4510.75 9595647.66 5148577.12 4045.47 9595647.66 5148577.12
  4517.50 9595814.74 5148744.20 4049.19 9595814.74 5148744.20 4525.47
  9595981.81 5148911.28 4053.55 9595981.81 5148911.28 4534.27 9596148.89
  5149078.36 4058.80 9596148.89 5149078.36 4542.51 9596315.97 5149245.44
  4065.16 9596315.97 5149245.44 4549.33 9596483.05 5149412.52 4072.67
  9596483.05 5149412.52 4555.12 9596650.13 5149579.59 4081.24 9596650.13
  5149579.59 4560.60 9596817.21 5149746.67 4090.81 9596817.21 5149746.67
  4566.00 9596984.29 5149913.75 4100.71 9596984.29 5149913.75 4571.63
  9593809.52 5146405.35 4037.69 9593809.52 5146405.35 4463.06 9593976.60
  5146572.43 4042.83 9593976.60 5146572.43 4467.21 9594143.68 5146739.51
  4044.45 9594143.68 5146739.51 4473.22 9594310.76 5146906.59 4042.23
  9594310.76 5146906.59 4478.35 9594477.84 5147073.67 4036.34 9594477.84
  5147073.67 4480.13 9594644.92 5147240.75 4028.13 9594644.92 5147240.75
  4479.77 9594812.00 5147407.83 4022.21 9594812.00 5147407.83 4480.11
  9594979.07 5147574.91 4020.41 9594979.07 5147574.91 4482.42 9595146.15
  5147741.98 4022.88 9595146.15 5147741.98 4486.87 9595313.23 5147909.06
  4028.23 9595313.23 5147909.06 4492.09 9595480.31 5148076.14 4034.01
  9595480.31 5148076.14 4497.33 9595647.39 5148243.22 4040.59 9595647.39
  5148243.22 4503.61 9595814.47 5148410.30 4046.74 9595814.47 5148410.30
  4511.91 9595981.55 5148577.38 4051.50 9595981.55 5148577.38 4521.65
  9596148.63 5148744.46 4055.24 9596148.63 5148744.46 4532.02 9596315.71
  5148911.54 4059.98 9596315.71 5148911.54 4541.96 9596482.79 5149078.62
  4065.76 9596482.79 5149078.62 4550.24 9596649.87 5149245.70 4072.33
  9596649.87 5149245.70 4556.74 9596816.95 5149412.78 4080.29 9596816.95
  5149412.78 4562.03 9596984.03 5149579.86 4089.30 9596984.03 5149579.86
  4567.29 9597151.11 5149746.94 4098.85 9597151.11 5149746.94 4573.23
  9593976.33 5146238.53 4033.59 9593976.33 5146238.53 4477.65 9594143.41
  5146405.61 4037.57 9594143.41 5146405.61 4477.98 9594310.49 5146572.69
  4038.61 9594310.49 5146572.69 4478.40 9594477.57 5146739.77 4035.10
  9594477.57 5146739.77 4478.09 9594644.65 5146906.85 4030.02 9594644.65
  5146906.85 4476.79 9594811.73 5147073.93 4023.45 9594811.73 5147073.93
  4475.23 9594978.81 5147241.01 4016.94 9594978.81 5147241.01 4475.48
  9595145.89 5147408.09 4014.74 9595145.89 5147408.09 4478.48 9595312.97
  5147575.17 4018.09 9595312.97 5147575.17 4483.77 9595480.05 5147742.25
  4025.59 9595480.05 5147742.25 4490.01 9595647.13 5147909.33 4033.91
  9595647.13 5147909.33 4495.31 9595814.21 5148076.41 4042.44 9595814.21
  5148076.41 4501.35 9595981.29 5148243.49 4050.43 9595981.29 5148243.49
  4510.43 9596148.37 5148410.57 4055.71 9596148.37 5148410.57 4521.32
  9596315.45 5148577.65 4058.16 9596315.45 5148577.65 4531.72 9596482.53
  5148744.72 4060.06 9596482.53 5148744.72 4541.39 9596649.61 5148911.80
  4063.51 9596649.61 5148911.80 4549.94 9596816.68 5149078.88 4069.43
  9596816.68 5149078.88 4556.66 9596983.76 5149245.96 4077.44 9596983.76
  5149245.96 4561.77 9597150.84 5149413.04 4085.99 9597150.84 5149413.04
  4566.99 9597317.92 5149580.12 4094.95 9597317.92 5149580.12 4573.55
  9594143.15 5146071.72 4032.19 9594143.15 5146071.72 4494.08 9594310.23
  5146238.80 4033.16 9594310.23 5146238.80 4489.80 9594477.31 5146405.88
  4032.39 9594477.31 5146405.88 4484.13 9594644.39 5146572.96 4027.69
  9594644.39 5146572.96 4478.58 9594811.47 5146740.04 4021.71 9594811.47
  5146740.04 4473.86 9594978.55 5146907.11 4016.66 9594978.55 5146907.11
  4471.34 9595145.63 5147074.19 4011.72 9595145.63 5147074.19 4471.80
  9595312.71 5147241.27 4010.46 9595312.71 5147241.27 4475.90 9595479.79
  5147408.35 4016.04 9595479.79 5147408.35 4483.06 9595646.87 5147575.43
  4025.76 9595646.87 5147575.43 4491.36 9595813.94 5147742.51 4036.95
  9595813.94 5147742.51 4498.11 9595981.02 5147909.59 4046.77 9595981.02
  5147909.59 4503.23 9596148.10 5148076.67 4055.26 9596148.10 5148076.67
  4511.08 9596315.18 5148243.75 4060.64 9596315.18 5148243.75 4521.50
  9596482.26 5148410.83 4060.48 9596482.26 5148410.83 4530.50 9596649.34
  5148577.91 4058.41 9596649.34 5148577.91 4538.34 9596816.42 5148744.99
  4058.55 9596816.42 5148744.99 4546.38 9596983.50 5148912.07 4063.26
  9596983.50 5148912.07 4553.60 9597150.58 5149079.15 4072.02 9597150.58
  5149079.15 4559.18 9597317.66 5149246.23 4081.46 9597317.66 5149246.23
  4564.50 9597484.74 5149413.31 4089.27 9597484.74 5149413.31 4571.20
  9594309.97 5145904.90 4034.73 9594309.97 5145904.90 4506.58 9594477.05
  5146071.98 4030.72 9594477.05 5146071.98 4499.34 9594644.13 5146239.06
  4028.29 9594644.13 5146239.06 4489.77 9594811.20 5146406.14 4023.01
  9594811.20 5146406.14 4480.75 9594978.28 5146573.22 4016.38 9594978.28
  5146573.22 4473.51 9595145.36 5146740.30 4010.37 9595145.36 5146740.30
  4469.39 9595312.44 5146907.38 4007.04 9595312.44 5146907.38 4469.63
  9595479.52 5147074.46 4007.90 9595479.52 5147074.46 4474.47 9595646.60
  5147241.54 4015.02 9595646.60 5147241.54 4483.31 9595813.68 5147408.62
  4026.76 9595813.68 5147408.62 4492.87 9595980.76 5147575.70 4038.64
  9595980.76 5147575.70 4499.65 9596147.84 5147742.78 4050.17 9596147.84
  5147742.78 4504.23 9596314.92 5147909.85 4058.87 9596314.92 5147909.85
  4509.40 9596482.00 5148076.93 4062.45 9596482.00 5148076.93 4517.00
  9596649.08 5148244.01 4059.26 9596649.08 5148244.01 4524.31 9596816.16
  5148411.09 4052.99 9596816.16 5148411.09 4530.31 9596983.24 5148578.17
  4050.92 9596983.24 5148578.17 4537.85 9597150.32 5148745.25 4054.93
  9597150.32 5148745.25 4546.33 9597317.40 5148912.33 4064.29 9597317.40
  5148912.33 4553.44 9597484.48 5149079.41 4074.43 9597484.48 5149079.41
  4559.45 9597651.55 5149246.49 4082.09 9597651.55 5149246.49 4565.81
  9594476.78 5145738.09 4041.40 9594476.78 5145738.09 4512.44 9594643.86
  5145905.17 4032.51 9594643.86 5145905.17 4504.75 9594810.94 5146072.24
  4028.16 9594810.94 5146072.24 4494.41 9594978.02 5146239.32 4022.82
  9594978.02 5146239.32 4484.07 9595145.10 5146406.40 4016.08 9595145.10
  5146406.40 4475.49 9595312.18 5146573.48 4009.44 9595312.18 5146573.48
  4470.32 9595479.26 5146740.56 4005.93 9595479.26 5146740.56 4470.06
  9595646.34 5146907.64 4007.91 9595646.34 5146907.64 4475.08 9595813.42
  5147074.72 4014.79 9595813.42 5147074.72 4483.73 9595980.50 5147241.80
  4024.53 9595980.50 5147241.80 4492.42 9596147.58 5147408.88 4035.14
  9596147.58 5147408.88 4497.34 9596314.66 5147575.96 4046.34 9596314.66
  5147575.96 4499.93 9596481.74 5147743.04 4056.75 9596481.74 5147743.04
  4503.71 9596648.81 5147910.12 4059.91 9596648.81 5147910.12 4509.00
  9596815.89 5148077.20 4053.36 9596815.89 5148077.20 4514.25 9596982.97
  5148244.28 4044.24 9596982.97 5148244.28 4519.47 9597150.05 5148411.36
  4040.98 9597150.05 5148411.36 4526.62 9597317.13 5148578.44 4046.54
  9597317.13 5148578.44 4535.74 9597484.21 5148745.52 4057.35 9597484.21
  5148745.52 4544.38 9597651.29 5148912.59 4068.69 9597651.29 5148912.59
  4551.63 9597818.37 5149079.67 4076.93 9597818.37 5149079.67 4558.11
  9594643.60 5145571.27 4048.02 9594643.60 5145571.27 4512.96 9594810.68
  5145738.35 4039.71 9594810.68 5145738.35 4506.48 9594977.76 5145905.43
  4032.62 9594977.76 5145905.43 4497.20 9595144.84 5146072.51 4026.55
  9595144.84 5146072.51 4487.38 9595311.92 5146239.59 4020.77 9595311.92
  5146239.59 4478.72 9595479.00 5146406.67 4014.80 9595479.00 5146406.67
  4473.69 9595646.07 5146573.75 4010.37 9595646.07 5146573.75 4473.55
  9595813.15 5146740.83 4010.54 9595813.15 5146740.83 4478.15 9595980.23
  5146907.91 4014.67 9595980.23 5146907.91 4485.07 9596147.31 5147074.98
  4020.22 9596147.31 5147074.98 4490.99 9596314.39 5147242.06 4026.96
  9596314.39 5147242.06 4493.72 9596481.47 5147409.14 4037.10 9596481.47
  5147409.14 4494.54 9596648.55 5147576.22 4048.17 9596648.55 5147576.22
  4497.46 9596815.63 5147743.30 4053.99 9596815.63 5147743.30 4503.08
  9596982.71 5147910.38 4048.60 9596982.71 5147910.38 4508.06 9597149.79
  5148077.46 4037.27 9597149.79 5148077.46 4512.31 9597316.87 5148244.54
  4031.62 9597316.87 5148244.54 4518.03 9597483.95 5148411.62 4037.73
  9597483.95 5148411.62 4525.19 9597651.03 5148578.70 4050.62 9597651.03
  5148578.70 4533.22 9597818.11 5148745.78 4064.65 9597818.11 5148745.78
  4541.24 9597985.19 5148912.86 4075.75 9597985.19 5148912.86 4548.57
  9594810.41 5145404.45 4052.94 9594810.41 5145404.45 4510.65 9594977.49
  5145571.53 4046.03 9594977.49 5145571.53 4505.34 9595144.57 5145738.61
  4039.10 9595144.57 5145738.61 4497.74 9595311.65 5145905.69 4032.80
  9595311.65 5145905.69 4489.56 9595478.73 5146072.77 4027.70 9595478.73
  5146072.77 4481.95 9595645.81 5146239.85 4023.35 9595645.81 5146239.85
  4477.85 9595812.89 5146406.93 4018.50 9595812.89 5146406.93 4478.42
  9595979.97 5146574.01 4015.91 9595979.97 5146574.01 4482.70 9596147.05
  5146741.09 4016.82 9596147.05 5146741.09 4488.13 9596314.13 5146908.17
  4018.67 9596314.13 5146908.17 4491.65 9596481.21 5147075.25 4022.10
  9596481.21 5147075.25 4492.62 9596648.29 5147242.33 4029.70 9596648.29
  5147242.33 4493.35 9596815.37 5147409.41 4040.07 9596815.37 5147409.41
  4497.20 9596982.45 5147576.49 4047.03 9596982.45 5147576.49 4503.93
  9597149.53 5147743.57 4046.62 9597149.53 5147743.57 4509.65 9597316.61
  5147910.65 4036.86 9597316.61 5147910.65 4512.47 9597483.68 5148077.72
  4028.69 9597483.68 5148077.72 4514.36 9597650.76 5148244.80 4031.67
  9597650.76 5148244.80 4517.10 9597817.84 5148411.88 4043.60 9597817.84
  5148411.88 4521.77 9597984.92 5148578.96 4058.12 9597984.92 5148578.96
  4528.83 9598152.00 5148746.04 4072.26 9598152.00 5148746.04 4536.51
  9594977.23 5145237.64 4053.15 9594977.23 5145237.64 4506.73 9595144.31
  5145404.72 4048.16 9595144.31 5145404.72 4502.29 9595311.39 5145571.80
  4042.97 9595311.39 5145571.80 4495.93 9595478.47 5145738.88 4038.67
  9595478.47 5145738.88 4489.62 9595645.55 5145905.96 4035.33 9595645.55
  5145905.96 4484.16 9595812.63 5146073.04 4031.90 9595812.63 5146073.04
  4481.34 9595979.71 5146240.11 4027.66 9595979.71 5146240.11 4482.58
  9596146.79 5146407.19 4023.19 9596146.79 5146407.19 4487.10 9596313.87
  5146574.27 4021.79 9596313.87 5146574.27 4492.57 9596480.94 5146741.35
  4022.05 9596480.94 5146741.35 4495.95 9596648.02 5146908.43 4023.87
  9596648.02 5146908.43 4497.22 9596815.10 5147075.51 4029.40 9596815.10
  5147075.51 4499.20 9596982.18 5147242.59 4035.76 9596982.18 5147242.59
  4504.35 9597149.26 5147409.67 4041.18 9597149.26 5147409.67 4511.20
  9597316.34 5147576.75 4044.20 9597316.34 5147576.75 4516.02 9597483.42
  5147743.83 4040.32 9597483.42 5147743.83 4516.62 9597650.50 5147910.91
  4032.33 9597650.50 5147910.91 4513.61 9597817.58 5148077.99 4031.67
  9597817.58 5148077.99 4510.93 9597984.66 5148245.07 4038.14 9597984.66
  5148245.07 4510.95 9598151.74 5148412.15 4048.87 9598151.74 5148412.15
  4514.71 9598318.82 5148579.23 4061.70 9598318.82 5148579.23 4520.27
  9595144.05 5145070.82 4049.30 9595144.05 5145070.82 4501.75 9595311.13
  5145237.90 4046.17 9595311.13 5145237.90 4497.94 9595478.21 5145404.98
  4043.44 9595478.21 5145404.98 4492.57 9595645.28 5145572.06 4041.70
  9595645.28 5145572.06 4487.53 9595812.36 5145739.14 4041.30 9595812.36
  5145739.14 4484.30 9595979.44 5145906.22 4040.46 9595979.44 5145906.22
  4483.61 9596146.52 5146073.30 4036.82 9596146.52 5146073.30 4485.91
  9596313.60 5146240.38 4032.09 9596313.60 5146240.38 4491.04 9596480.68
  5146407.46 4029.15 9596480.68 5146407.46 4497.69 9596647.76 5146574.54
  4027.67 9596647.76 5146574.54 4503.44 9596814.84 5146741.62 4027.71
  9596814.84 5146741.62 4507.38 9596981.92 5146908.70 4031.29 9596981.92
  5146908.70 4510.97 9597149.00 5147075.78 4034.98 9597149.00 5147075.78
  4515.73 9597316.08 5147242.85 4038.02 9597316.08 5147242.85 4520.42
  9597483.16 5147409.93 4043.04 9597483.16 5147409.93 4521.98 9597650.24
  5147577.01 4043.68 9597650.24 5147577.01 4518.92 9597817.32 5147744.09
  4038.52 9597817.32 5147744.09 4512.25 9597984.40 5147911.17 4034.56
  9597984.40 5147911.17 4505.17 9598151.48 5148078.25 4035.91 9598151.48
  5148078.25 4500.28 9598318.56 5148245.33 4040.64 9598318.56 5148245.33
  4498.44 9598485.63 5148412.41 4047.27 9598485.63 5148412.41 4499.57
  9595310.86 5144904.01 4043.75 9595310.86 5144904.01 4496.30 9595477.94
  5145071.09 4041.48 9595477.94 5145071.09 4493.00 9595645.02 5145238.17
  4039.76 9595645.02 5145238.17 4488.42 9595812.10 5145405.24 4040.21
  9595812.10 5145405.24 4484.35 9595979.18 5145572.32 4042.78 9595979.18
  5145572.32 4482.88 9596146.26 5145739.40 4046.18 9596146.26 5145739.40
  4484.66 9596313.34 5145906.48 4046.55 9596313.34 5145906.48 4488.98
  9596480.42 5146073.56 4043.22 9596480.42 5146073.56 4495.37 9596647.50
  5146240.64 4040.25 9596647.50 5146240.64 4503.82 9596814.58 5146407.72
  4037.03 9596814.58 5146407.72 4512.43 9596981.66 5146574.80 4033.52
  9596981.66 5146574.80 4518.59 9597148.74 5146741.88 4034.94 9597148.74
  5146741.88 4522.18 9597315.82 5146908.96 4038.86 9597315.82 5146908.96
  4524.46 9597482.89 5147076.04 4042.13 9597482.89 5147076.04 4525.46
  9597649.97 5147243.12 4046.40 9597649.97 5147243.12 4523.16 9597817.05
  5147410.20 4048.65 9597817.05 5147410.20 4516.44 9597984.13 5147577.28
  4044.00 9597984.13 5147577.28 4507.23 9598151.21 5147744.36 4037.51
  9598151.21 5147744.36 4497.84 9598318.29 5147911.44 4034.30 9598318.29
  5147911.44 4489.59 9598485.37 5148078.52 4034.45 9598485.37 5148078.52
  4482.81 9598652.45 5148245.59 4035.03 9598652.45 5148245.59 4478.93
  9595477.68 5144737.19 4038.55 9595477.68 5144737.19 4491.20 9595644.76
  5144904.27 4036.77 9595644.76 5144904.27 4488.41 9595811.84 5145071.35
  4034.86 9595811.84 5145071.35 4484.44 9595978.92 5145238.43 4035.39
  9595978.92 5145238.43 4481.02 9596146.00 5145405.51 4039.41 9596146.00
  5145405.51 4480.68 9596313.08 5145572.59 4046.59 9596313.08 5145572.59
  4484.26 9596480.15 5145739.67 4053.06 9596480.15 5145739.67 4490.55
  9596647.23 5145906.75 4054.45 9596647.23 5145906.75 4499.05 9596814.31
  5146073.83 4052.17 9596814.31 5146073.83 4509.40 9596981.39 5146240.91
  4047.46 9596981.39 5146240.91 4519.33 9597148.47 5146407.98 4041.43
  9597148.47 5146407.98 4525.07 9597315.55 5146575.06 4041.41 9597315.55
  5146575.06 4526.32 9597482.63 5146742.14 4047.53 9597482.63 5146742.14
  4525.04 9597649.71 5146909.22 4052.94 9597649.71 5146909.22 4522.35
  9597816.79 5147076.30 4056.23 9597816.79 5147076.30 4517.28 9597983.87
  5147243.38 4054.95 9597983.87 5147243.38 4509.38 9598150.95 5147410.46
  4048.07 9598150.95 5147410.46 4499.32 9598318.03 5147577.54 4039.23
  9598318.03 5147577.54 4488.93 9598485.11 5147744.62 4031.96 9598485.11
  5147744.62 4479.11 9598652.19 5147911.70 4028.71 9598652.19 5147911.70
  4470.76 9598819.27 5148078.78 4027.85 9598819.27 5148078.78 4465.14
  9595644.49 5144570.37 4036.62 9595644.49 5144570.37 4487.19 9595811.57
  5144737.45 4035.59 9595811.57 5144737.45 4485.07 9595978.65 5144904.53
  4033.51 9595978.65 5144904.53 4481.21 9596145.73 5145071.61 4031.87
  9596145.73 5145071.61 4477.82 9596312.81 5145238.69 4033.52 9596312.81
  5145238.69 4477.58 9596479.89 5145405.77 4042.02 9596479.89 5145405.77
  4481.99 9596646.97 5145572.85 4053.10 9596646.97 5145572.85 4490.33
  9596814.05 5145739.93 4059.47 9596814.05 5145739.93 4500.97 9596981.13
  5145907.01 4058.10 9596981.13 5145907.01 4511.36 9597148.21 5146074.09
  4051.39 9597148.21 5146074.09 4519.51 9597315.29 5146241.17 4044.66
  9597315.29 5146241.17 4522.57 9597482.37 5146408.25 4046.21 9597482.37
  5146408.25 4520.90 9597649.45 5146575.33 4054.70 9597649.45 5146575.33
  4517.01 9597816.53 5146742.41 4063.35 9597816.53 5146742.41 4512.57
  9597983.61 5146909.49 4066.64 9597983.61 5146909.49 4507.30 9598150.69
  5147076.57 4063.29 9598150.69 5147076.57 4500.09 9598317.76 5147243.64
  4054.16 9598317.76 5147243.64 4491.27 9598484.84 5147410.72 4044.15
  9598484.84 5147410.72 4481.34 9598651.92 5147577.80 4035.21 9598651.92
  5147577.80 4471.33 9598819.00 5147744.88 4028.21 9598819.00 5147744.88
  4463.08 9598986.08 5147911.96 4025.87 9598986.08 5147911.96 4458.61
  9595811.31 5144403.56 4038.66 9595811.31 5144403.56 4485.09 9595978.39
  5144570.64 4038.47 9595978.39 5144570.64 4483.08 9596145.47 5144737.72
  4036.48 9596145.47 5144737.72 4478.83 9596312.55 5144904.80 4033.98
  9596312.55 5144904.80 4474.87 9596479.63 5145071.88 4032.91 9596479.63
  5145071.88 4474.66 9596646.71 5145238.96 4038.25 9596646.71 5145238.96
  4479.91 9596813.79 5145406.03 4050.01 9596813.79 5145406.03 4490.13
  9596980.87 5145573.11 4058.28 9596980.87 5145573.11 4501.52 9597147.95
  5145740.19 4059.36 9597147.95 5145740.19 4509.85 9597315.02 5145907.27
  4052.95 9597315.02 5145907.27 4513.51 9597482.10 5146074.35 4047.12
  9597482.10 5146074.35 4513.01 9597649.18 5146241.43 4049.49 9597649.18
  5146241.43 4509.30 9597816.26 5146408.51 4059.40 9597816.26 5146408.51
  4504.85 9597983.34 5146575.59 4068.31 9597983.34 5146575.59 4501.08
  9598150.42 5146742.67 4073.54 9598150.42 5146742.67 4496.96 9598317.50
  5146909.75 4072.43 9598317.50 5146909.75 4491.67 9598484.58 5147076.83
  4064.38 9598484.58 5147076.83 4485.25 9598651.66 5147243.91 4053.13
  9598651.66 5147243.91 4477.55 9598818.74 5147410.99 4041.82 9598818.74
  5147410.99 4468.86 9598985.82 5147578.07 4031.75 9598985.82 5147578.07
  4461.49 9599152.90 5147745.15 4026.60 9599152.90 5147745.15 4458.05
  9595978.13 5144236.74 4041.67 9595978.13 5144236.74 4484.37 9596145.21
  5144403.82 4042.18 9596145.21 5144403.82 4482.47 9596312.28 5144570.90
  4041.09 9596312.28 5144570.90 4478.41 9596479.36 5144737.98 4039.97
  9596479.36 5144737.98 4474.89 9596646.44 5144905.06 4039.14 9596646.44
  5144905.06 4475.51 9596813.52 5145072.14 4040.67 9596813.52 5145072.14
  4482.73 9596980.60 5145239.22 4045.57 9596980.60 5145239.22 4493.96
  9597147.68 5145406.30 4052.37 9597147.68 5145406.30 4503.80 9597314.76
  5145573.38 4056.04 9597314.76 5145573.38 4508.47 9597481.84 5145740.46
  4055.20 9597481.84 5145740.46 4506.94 9597648.92 5145907.54 4052.26
  9597648.92 5145907.54 4502.32 9597816.00 5146074.62 4054.42 9597816.00
  5146074.62 4497.42 9597983.08 5146241.70 4059.99 9597983.08 5146241.70
  4493.73 9598150.16 5146408.77 4065.96 9598150.16 5146408.77 4490.74
  9598317.24 5146575.85 4072.44 9598317.24 5146575.85 4488.15 9598484.32
  5146742.93 4076.88 9598484.32 5146742.93 4485.95 9598651.40 5146910.01
  4072.88 9598651.40 5146910.01 4482.96 9598818.48 5147077.09 4061.42
  9598818.48 5147077.09 4478.08 9598985.56 5147244.17 4047.25 9598985.56
  5147244.17 4471.51 9599152.63 5147411.25 4034.83 9599152.63 5147411.25
  4465.28 9599319.71 5147578.33 4027.88 9599319.71 5147578.33 4461.85
  9596144.94 5144069.93 4043.60 9596144.94 5144069.93 4483.69 9596312.02
  5144237.01 4044.01 9596312.02 5144237.01 4482.42 9596479.10 5144404.09
  4043.21 9596479.10 5144404.09 4479.98 9596646.18 5144571.16 4043.21
  9596646.18 5144571.16 4477.97 9596813.26 5144738.24 4043.51 9596813.26
  5144738.24 4479.75 9596980.34 5144905.32 4042.47 9596980.34 5144905.32
  4489.67 9597147.42 5145072.40 4040.99 9597147.42 5145072.40 4501.38
  9597314.50 5145239.48 4042.22 9597314.50 5145239.48 4508.81 9597481.58
  5145406.56 4047.75 9597481.58 5145406.56 4508.88 9597648.66 5145573.64
  4052.45 9597648.66 5145573.64 4501.86 9597815.74 5145740.72 4053.96
  9597815.74 5145740.72 4493.85 9597982.82 5145907.80 4054.96 9597982.82
  5145907.80 4488.77 9598149.89 5146074.88 4056.28 9598149.89 5146074.88
  4484.99 9598316.97 5146241.96 4058.00 9598316.97 5146241.96 4482.09
  9598484.05 5146409.04 4065.25 9598484.05 5146409.04 4481.53 9598651.13
  5146576.12 4073.30 9598651.13 5146576.12 4483.25 9598818.21 5146743.20
  4074.36 9598818.21 5146743.20 4484.47 9598985.29 5146910.28 4064.82
  9598985.29 5146910.28 4482.22 9599152.37 5147077.36 4051.62 9599152.37
  5147077.36 4477.10 9599319.45 5147244.44 4040.99 9599319.45 5147244.44
  4471.29 9599486.53 5147411.51 4033.93 9599486.53 5147411.51 4467.08
  9596311.76 5143903.11 4043.35 9596311.76 5143903.11 4482.81 9596478.84
  5144070.19 4043.16 9596478.84 5144070.19 4482.39 9596645.92 5144237.27
  4041.72 9596645.92 5144237.27 4481.69 9596813.00 5144404.35 4041.37
  9596813.00 5144404.35 4482.24 9596980.08 5144571.43 4041.54 9596980.08
  5144571.43 4485.54 9597147.15 5144738.51 4040.18 9597147.15 5144738.51
  4495.34 9597314.23 5144905.59 4037.16 9597314.23 5144905.59 4506.48
  9597481.31 5145072.67 4035.15 9597481.31 5145072.67 4510.47 9597648.39
  5145239.75 4039.20 9597648.39 5145239.75 4506.25 9597815.47 5145406.83
  4046.68 9597815.47 5145406.83 4496.42 9597982.55 5145573.90 4051.37
  9597982.55 5145573.90 4487.41 9598149.63 5145740.98 4053.04 9598149.63
  5145740.98 4481.40 9598316.71 5145908.06 4052.97 9598316.71 5145908.06
  4477.57 9598483.79 5146075.14 4054.50 9598483.79 5146075.14 4476.08
  9598650.87 5146242.22 4060.82 9598650.87 5146242.22 4478.05 9598817.95
  5146409.30 4069.42 9598817.95 5146409.30 4482.95 9598985.03 5146576.38
  4072.48 9598985.03 5146576.38 4487.51 9599152.11 5146743.46 4067.69
  9599152.11 5146743.46 4487.94 9599319.19 5146910.54 4057.45 9599319.19
  5146910.54 4483.23 9599486.27 5147077.62 4048.21 9599486.27 5147077.62
  4477.03 9599653.35 5147244.70 4041.65 9599653.35 5147244.70 4472.85
  9596478.57 5143736.29 4041.12 9596478.57 5143736.29 4481.86 9596645.65
  5143903.37 4040.33 9596645.65 5143903.37 4482.19 9596812.73 5144070.45
  4039.03 9596812.73 5144070.45 4482.87 9596979.81 5144237.53 4038.24
  9596979.81 5144237.53 4484.95 9597146.89 5144404.61 4038.88 9597146.89
  5144404.61 4489.64 9597313.97 5144571.69 4038.70 9597313.97 5144571.69
  4496.66 9597481.05 5144738.77 4036.66 9597481.05 5144738.77 4502.88
  9597648.13 5144905.85 4035.02 9597648.13 5144905.85 4503.53 9597815.21
  5145072.93 4036.88 9597815.21 5145072.93 4497.60 9597982.29 5145240.01
  4043.32 9597982.29 5145240.01 4488.76 9598149.37 5145407.09 4049.83
  9598149.37 5145407.09 4480.64 9598316.45 5145574.17 4052.67 9598316.45
  5145574.17 4475.00 9598483.53 5145741.25 4053.98 9598483.53 5145741.25
  4472.29 9598650.61 5145908.33 4057.48 9598650.61 5145908.33 4473.23
  9598817.69 5146075.41 4064.12 9598817.69 5146075.41 4477.88 9598984.76
  5146242.49 4069.94 9598984.76 5146242.49 4484.68 9599151.84 5146409.57
  4073.24 9599151.84 5146409.57 4490.68 9599318.92 5146576.64 4071.09
  9599318.92 5146576.64 4492.59 9599486.00 5146743.72 4063.20 9599486.00
  5146743.72 4488.79 9599653.08 5146910.80 4053.95 9599653.08 5146910.80
  4482.27 9599820.16 5147077.88 4046.56 9599820.16 5147077.88 4478.26
  9596645.39 5143569.48 4038.19 9596645.39 5143569.48 4481.14 9596812.47
  5143736.56 4036.80 9596812.47 5143736.56 4480.70 9596979.55 5143903.64
  4036.15 9596979.55 5143903.64 4481.47 9597146.63 5144070.72 4036.48
  9597146.63 5144070.72 4483.92 9597313.71 5144237.80 4038.25 9597313.71
  5144237.80 4487.26 9597480.79 5144404.88 4039.84 9597480.79 5144404.88
  4490.62 9597647.87 5144571.96 4039.53 9597647.87 5144571.96 4492.43
  9597814.95 5144739.03 4038.64 9597814.95 5144739.03 4491.16 9597982.02
  5144906.11 4040.00 9597982.02 5144906.11 4486.62 9598149.10 5145073.19
  4044.38 9598149.10 5145073.19 4480.20 9598316.18 5145240.27 4049.71
  9598316.18 5145240.27 4474.60 9598483.26 5145407.35 4053.39 9598483.26
  5145407.35 4470.82 9598650.34 5145574.43 4056.06 9598650.34 5145574.43
  4469.89 9598817.42 5145741.51 4061.21 9598817.42 5145741.51 4472.94
  9598984.50 5145908.59 4068.06 9598984.50 5145908.59 4479.62 9599151.58
  5146075.67 4072.47 9599151.58 5146075.67 4487.31 9599318.66 5146242.75
  4074.61 9599318.66 5146242.75 4493.34 9599485.74 5146409.83 4073.70
  9599485.74 5146409.83 4495.79 9599652.82 5146576.91 4067.47 9599652.82
  5146576.91 4493.34 9599819.90 5146743.99 4058.24 9599819.90 5146743.99
  4487.19 9599986.98 5146911.07 4048.65 9599986.98 5146911.07 4482.10
  9596812.21 5143402.66 4035.48 9596812.21 5143402.66 4479.68 9596979.28
  5143569.74 4033.62 9596979.28 5143569.74 4477.28 9597146.36 5143736.82
  4032.82 9597146.36 5143736.82 4476.32 9597313.44 5143903.90 4034.56
  9597313.44 5143903.90 4477.67 9597480.52 5144070.98 4037.44 9597480.52
  5144070.98 4480.11 9597647.60 5144238.06 4040.20 9597647.60 5144238.06
  4481.52 9597814.68 5144405.14 4041.22 9597814.68 5144405.14 4481.81
  9597981.76 5144572.22 4041.51 9597981.76 5144572.22 4480.42 9598148.84
  5144739.30 4043.09 9598148.84 5144739.30 4477.09 9598315.92 5144906.38
  4046.04 9598315.92 5144906.38 4473.08 9598483.00 5145073.46 4049.49
  9598483.00 5145073.46 4469.57 9598650.08 5145240.54 4052.78 9598650.08
  5145240.54 4467.91 9598817.16 5145407.62 4056.53 9598817.16 5145407.62
  4469.24 9598984.24 5145574.70 4063.24 9598984.24 5145574.70 4473.72
  9599151.32 5145741.77 4070.44 9599151.32 5145741.77 4481.06 9599318.40
  5145908.85 4073.61 9599318.40 5145908.85 4489.08 9599485.48 5146075.93
  4074.76 9599485.48 5146075.93 4495.22 9599652.56 5146243.01 4074.46
  9599652.56 5146243.01 4498.03 9599819.63 5146410.09 4069.92 9599819.63
  5146410.09 4496.56 9599986.71 5146577.17 4061.73 9599986.71 5146577.17
  4491.02 9600153.79 5146744.25 4051.21 9600153.79 5146744.25 4484.20
  9596979.02 5143235.85 4033.13 9596979.02 5143235.85 4477.48 9597146.10
  5143402.93 4031.09 9597146.10 5143402.93 4474.36 9597313.18 5143570.01
  4030.58 9597313.18 5143570.01 4472.69 9597480.26 5143737.09 4032.66
  9597480.26 5143737.09 4473.14 9597647.34 5143904.16 4035.58 9597647.34
  5143904.16 4474.45 9597814.42 5144071.24 4038.30 9597814.42 5144071.24
  4475.46 9597981.50 5144238.32 4039.63 9597981.50 5144238.32 4474.90