-- Format      : ECLIPSE keywords (grid geometry and properties) (ASCII)
-- Exported by : Petrel 2011.2.6 (64-bit) Schlumberger
-- User name   : ag27710
-- Date        : Tuesday, November 13 2012 15:40:19
-- Project     : D-Island_2011.pet
-- Grid        : Sector model D-Island (20 x 24) new wells

GRIDUNIT                               -- Generated : Petrel
  FEET MAP /

SPECGRID                               -- Generated : Petrel
  20 24 43 1 F /

COORDSYS                               -- Generated : Petrel
  1 43 /

COORD                                  -- Generated : Petrel
  31474111.13 16886173.88 13301.07 31474111.13 16886173.88 14616.68
  31474659.29 16886722.04 13301.16 31474659.29 16886722.04 14627.78
  31475207.45 16887270.20 13290.13 31475207.45 16887270.20 14651.62
  31475755.61 16887818.36 13274.87 31475755.61 16887818.36 14684.15
  31476303.77 16888366.52 13264.91 31476303.77 16888366.52 14717.05
  31476851.93 16888914.68 13266.05 31476851.93 16888914.68 14745.11
  31477400.09 16889462.84 13277.08 31477400.09 16889462.84 14770.11
  31477948.25 16890011.00 13291.92 31477948.25 16890011.00 14792.63
  31478496.41 16890559.16 13304.68 31478496.41 16890559.16 14812.07
  31479044.57 16891107.32 13308.56 31479044.57 16891107.32 14828.11
  31479592.73 16891655.48 13303.81 31479592.73 16891655.48 14840.95
  31480140.89 16892203.64 13296.47 31480140.89 16892203.64 14852.74
  31480689.06 16892751.81 13290.97 31480689.06 16892751.81 14864.85
  31481237.22 16893299.97 13289.84 31481237.22 16893299.97 14877.88
  31481785.38 16893848.13 13292.09 31481785.38 16893848.13 14891.10
  31482333.54 16894396.29 13299.13 31482333.54 16894396.29 14901.79
  31482881.70 16894944.45 13316.66 31482881.70 16894944.45 14914.02
  31483429.86 16895492.61 13346.30 31483429.86 16895492.61 14936.65
  31483978.02 16896040.77 13381.92 31483978.02 16896040.77 14955.36
  31484526.18 16896588.93 13417.31 31484526.18 16896588.93 14968.36
  31485074.34 16897137.09 13448.63 31485074.34 16897137.09 14985.12
  31474658.42 16885626.58 13282.13 31474658.42 16885626.58 14601.37
  31475206.58 16886174.74 13290.60 31475206.58 16886174.74 14617.01
  31475754.74 16886722.90 13286.77 31475754.74 16886722.90 14645.65
  31476302.90 16887271.06 13271.86 31476302.90 16887271.06 14679.20
  31476851.07 16887819.22 13254.96 31476851.07 16887819.22 14707.78
  31477399.23 16888367.38 13244.44 31477399.23 16888367.38 14726.48
  31477947.39 16888915.54 13243.01 31477947.39 16888915.54 14740.99
  31478495.55 16889463.71 13251.15 31478495.55 16889463.71 14758.08
  31479043.71 16890011.87 13264.06 31479043.71 16890011.87 14776.68
  31479591.87 16890560.03 13273.12 31479591.87 16890560.03 14795.21
  31480140.03 16891108.19 13274.91 31480140.03 16891108.19 14812.21
  31480688.19 16891656.35 13274.85 31480688.19 16891656.35 14828.19
  31481236.35 16892204.51 13277.57 31481236.35 16892204.51 14845.47
  31481784.51 16892752.67 13284.22 31481784.51 16892752.67 14865.24
  31482332.67 16893300.83 13294.77 31482332.67 16893300.83 14885.99
  31482880.83 16893848.99 13308.94 31482880.83 16893848.99 14904.70
  31483428.99 16894397.15 13327.67 31483428.99 16894397.15 14920.02
  31483977.16 16894945.31 13354.15 31483977.16 16894945.31 14938.41
  31484525.32 16895493.47 13385.84 31484525.32 16895493.47 14957.41
  31485073.48 16896041.63 13419.46 31485073.48 16896041.63 14974.38
  31485621.64 16896589.80 13453.48 31485621.64 16896589.80 14992.59
  31475205.72 16885079.28 13264.74 31475205.72 16885079.28 14611.87
  31475753.88 16885627.44 13278.88 31475753.88 16885627.44 14630.53
  31476302.04 16886175.60 13282.19 31476302.04 16886175.60 14659.41
  31476850.20 16886723.77 13272.17 31476850.20 16886723.77 14687.24
  31477398.36 16887271.93 13250.79 31477398.36 16887271.93 14704.62
  31477946.52 16887820.09 13228.63 31477946.52 16887820.09 14711.94
  31478494.68 16888368.25 13216.39 31478494.68 16888368.25 14717.04
  31479042.84 16888916.41 13215.94 31479042.84 16888916.41 14727.29
  31479591.00 16889464.57 13226.05 31479591.00 16889464.57 14743.43
  31480139.17 16890012.73 13239.16 31480139.17 16890012.73 14761.67
  31480687.33 16890560.89 13250.11 31480687.33 16890560.89 14779.94
  31481235.49 16891109.05 13260.28 31481235.49 16891109.05 14799.03
  31481783.65 16891657.21 13272.54 31481783.65 16891657.21 14821.20
  31482331.81 16892205.37 13284.73 31482331.81 16892205.37 14847.36
  31482879.97 16892753.53 13299.04 31482879.97 16892753.53 14876.21
  31483428.13 16893301.70 13316.26 31483428.13 16893301.70 14903.23
  31483976.29 16893849.86 13337.15 31483976.29 16893849.86 14925.62
  31484524.45 16894398.02 13361.78 31484524.45 16894398.02 14944.63
  31485072.61 16894946.18 13389.88 31485072.61 16894946.18 14962.60
  31485620.77 16895494.34 13421.28 31485620.77 16895494.34 14980.33
  31486168.93 16896042.50 13453.76 31486168.93 16896042.50 14998.78
  31475753.01 16884531.99 13247.00 31475753.01 16884531.99 14642.57
  31476301.18 16885080.15 13263.89 31476301.18 16885080.15 14656.22
  31476849.34 16885628.31 13269.19 31476849.34 16885628.31 14675.92
  31477397.50 16886176.47 13261.89 31477397.50 16886176.47 14692.75
  31477945.66 16886724.63 13242.58 31477945.66 16886724.63 14698.58
  31478493.82 16887272.79 13215.66 31478493.82 16887272.79 14697.40
  31479041.98 16887820.95 13196.23 31479041.98 16887820.95 14698.52
  31479590.14 16888369.11 13190.32 31479590.14 16888369.11 14706.09
  31480138.30 16888917.27 13198.43 31480138.30 16888917.27 14720.72
  31480686.46 16889465.43 13215.99 31480686.46 16889465.43 14737.84
  31481234.62 16890013.59 13234.95 31481234.62 16890013.59 14755.01
  31481782.78 16890561.76 13256.53 31481782.78 16890561.76 14775.61
  31482330.94 16891109.92 13276.71 31482330.94 16891109.92 14802.85
  31482879.10 16891658.08 13292.34 31482879.10 16891658.08 14834.80
  31483427.27 16892206.24 13304.60 31483427.27 16892206.24 14868.84
  31483975.43 16892754.40 13320.15 31483975.43 16892754.40 14901.43
  31484523.59 16893302.56 13339.12 31484523.59 16893302.56 14928.59
  31485071.75 16893850.72 13360.67 31485071.75 16893850.72 14949.94
  31485619.91 16894398.88 13386.76 31485619.91 16894398.88 14967.29
  31486168.07 16894947.04 13416.32 31486168.07 16894947.04 14984.53
  31486716.23 16895495.20 13447.68 31486716.23 16895495.20 15004.04
  31476300.31 16883984.69 13233.57 31476300.31 16883984.69 14690.47
  31476848.47 16884532.85 13246.62 31476848.47 16884532.85 14691.54
  31477396.63 16885081.01 13250.02 31477396.63 16885081.01 14692.92
  31477944.79 16885629.17 13238.53 31477944.79 16885629.17 14691.89
  31478492.95 16886177.33 13221.85 31478492.95 16886177.33 14687.62
  31479041.11 16886725.49 13200.30 31479041.11 16886725.49 14682.52
  31479589.28 16887273.66 13178.92 31479589.28 16887273.66 14683.34
  31480137.44 16887821.82 13171.73 31480137.44 16887821.82 14693.16
  31480685.60 16888369.98 13182.70 31480685.60 16888369.98 14710.52
  31481233.76 16888918.14 13207.31 31481233.76 16888918.14 14731.01
  31481781.92 16889466.30 13234.60 31481781.92 16889466.30 14748.40
  31482330.08 16890014.46 13262.59 31482330.08 16890014.46 14768.19
  31482878.24 16890562.62 13288.80 31482878.24 16890562.62 14797.99
  31483426.40 16891110.78 13306.13 31483426.40 16891110.78 14833.72
  31483974.56 16891658.94 13314.18 31483974.56 16891658.94 14867.85
  31484522.72 16892207.10 13320.42 31484522.72 16892207.10 14899.58
  31485070.88 16892755.26 13331.72 31485070.88 16892755.26 14927.63
  31485619.04 16893303.42 13351.16 31485619.04 16893303.42 14949.66
  31486167.21 16893851.58 13377.41 31486167.21 16893851.58 14966.43
  31486715.37 16894399.75 13405.48 31486715.37 16894399.75 14983.55
  31487263.53 16894947.91 13434.88 31487263.53 16894947.91 15005.09
  31476847.61 16883437.39 13228.97 31476847.61 16883437.39 14744.35
  31477395.77 16883985.55 13232.14 31477395.77 16883985.55 14730.33
  31477943.93 16884533.72 13229.61 31477943.93 16884533.72 14711.72
  31478492.09 16885081.88 13214.22 31478492.09 16885081.88 14693.51
  31479040.25 16885630.04 13194.60 31479040.25 16885630.04 14678.03
  31479588.41 16886178.20 13178.03 31479588.41 16886178.20 14669.75
  31480136.57 16886726.36 13161.82 31480136.57 16886726.36 14671.27
  31480684.73 16887274.52 13157.69 31480684.73 16887274.52 14684.71
  31481232.89 16887822.68 13175.98 31481232.89 16887822.68 14708.20
  31481781.05 16888370.84 13207.88 31481781.05 16888370.84 14735.43
  31482329.22 16888919.00 13244.60 31482329.22 16888919.00 14757.58
  31482877.38 16889467.16 13276.80 31482877.38 16889467.16 14774.37
  31483425.54 16890015.32 13304.65 31483425.54 16890015.32 14800.12
  31483973.70 16890563.48 13322.33 31483973.70 16890563.48 14834.33
  31484521.86 16891111.65 13321.79 31484521.86 16891111.65 14863.85
  31485070.02 16891659.81 13315.00 31485070.02 16891659.81 14889.58
  31485618.18 16892207.97 13315.45 31485618.18 16892207.97 14915.94
  31486166.34 16892756.13 13330.92 31486166.34 16892756.13 14939.65
  31486714.50 16893304.29 13359.64 31486714.50 16893304.29 14957.93
  31487262.66 16893852.45 13390.61 31487262.66 16893852.45 14975.39
  31487810.82 16894400.61 13416.25 31487810.82 16894400.61 14997.38
  31477394.90 16882890.10 13237.30 31477394.90 16882890.10 14785.37
  31477943.06 16883438.26 13224.16 31477943.06 16883438.26 14761.61
  31478491.23 16883986.42 13216.17 31478491.23 16883986.42 14730.23
  31479039.39 16884534.58 13198.86 31479039.39 16884534.58 14700.63
  31479587.55 16885082.74 13177.10 31479587.55 16885082.74 14676.88
  31480135.71 16885630.90 13157.39 31480135.71 16885630.90 14663.35
  31480683.87 16886179.06 13146.46 31480683.87 16886179.06 14664.14
  31481232.03 16886727.22 13149.28 31481232.03 16886727.22 14680.03
  31481780.19 16887275.38 13172.63 31481780.19 16887275.38 14709.03
  31482328.35 16887823.54 13211.17 31482328.35 16887823.54 14740.39
  31482876.51 16888371.71 13250.13 31482876.51 16888371.71 14762.63
  31483424.67 16888919.87 13287.95 31483424.67 16888919.87 14777.65
  31483972.83 16889468.03 13316.50 31483972.83 16889468.03 14794.61
  31484520.99 16890016.19 13328.24 31484520.99 16890016.19 14819.56
  31485069.15 16890564.35 13317.79 31485069.15 16890564.35 14843.55
  31485617.32 16891112.51 13297.21 31485617.32 16891112.51 14863.21
  31486165.48 16891660.67 13290.43 31486165.48 16891660.67 14887.96
  31486713.64 16892208.83 13303.59 31486713.64 16892208.83 14915.77
  31487261.80 16892756.99 13334.27 31487261.80 16892756.99 14939.10
  31487809.96 16893305.15 13367.55 31487809.96 16893305.15 14958.82
  31488358.12 16893853.31 13392.68 31488358.12 16893853.31 14979.68
  31477942.20 16882342.80 13259.19 31477942.20 16882342.80 14804.58
  31478490.36 16882890.96 13230.03 31478490.36 16882890.96 14779.38
  31479038.52 16883439.12 13215.76 31479038.52 16883439.12 14745.45
  31479586.68 16883987.28 13198.22 31479586.68 16883987.28 14711.53
  31480134.84 16884535.44 13176.12 31480134.84 16884535.44 14683.36
  31480683.00 16885083.61 13154.33 31480683.00 16885083.61 14666.39
  31481231.16 16885631.77 13142.80 31481231.16 16885631.77 14665.54
  31481779.33 16886179.93 13149.31 31481779.33 16886179.93 14682.02
  31482327.49 16886728.09 13171.89 31482327.49 16886728.09 14710.41
  31482875.65 16887276.25 13203.82 31482875.65 16887276.25 14738.91
  31483423.81 16887824.41 13238.66 31483423.81 16887824.41 14755.04
  31483971.97 16888372.57 13275.40 31483971.97 16888372.57 14763.54
  31484520.13 16888920.73 13309.54 31484520.13 16888920.73 14775.96
  31485068.29 16889468.89 13319.90 31485068.29 16889468.89 14793.31
  31485616.45 16890017.05 13298.43 31485616.45 16890017.05 14810.53
  31486164.61 16890565.21 13268.52 31486164.61 16890565.21 14827.66
  31486712.77 16891113.37 13257.81 31486712.77 16891113.37 14851.12
  31487260.93 16891661.53 13276.04 31487260.93 16891661.53 14881.05
  31487809.09 16892209.70 13311.50 31487809.09 16892209.70 14909.37
  31488357.25 16892757.86 13348.72 31488357.25 16892757.86 14933.18
  31488905.42 16893306.02 13375.75 31488905.42 16893306.02 14954.44
  31478489.50 16881795.51 13280.90 31478489.50 16881795.51 14806.31
  31479037.66 16882343.67 13253.63 31479037.66 16882343.67 14785.05
  31479585.82 16882891.83 13230.37 31479585.82 16882891.83 14754.59
  31480133.98 16883439.99 13210.46 31480133.98 16883439.99 14722.37
  31480682.14 16883988.15 13191.51 31480682.14 16883988.15 14693.95
  31481230.30 16884536.31 13171.91 31481230.30 16884536.31 14677.46
  31481778.46 16885084.47 13157.37 31481778.46 16885084.47 14677.00
  31482326.62 16885632.63 13157.95 31482326.62 16885632.63 14692.11
  31482874.78 16886180.79 13171.48 31482874.78 16886180.79 14714.81
  31483422.94 16886728.95 13189.70 31483422.94 16886728.95 14734.23
  31483971.10 16887277.11 13211.80 31483971.10 16887277.11 14743.17
  31484519.26 16887825.27 13245.08 31484519.26 16887825.27 14745.87
  31485067.43 16888373.43 13281.38 31485067.43 16888373.43 14755.45
  31485615.59 16888921.60 13300.50 31485615.59 16888921.60 14773.87
  31486163.75 16889469.76 13282.80 31486163.75 16889469.76 14790.21
  31486711.91 16890017.92 13245.63 31486711.91 16890017.92 14804.18
  31487260.07 16890566.08 13227.09 31487260.07 16890566.08 14822.92
  31487808.23 16891114.24 13247.15 31487808.23 16891114.24 14846.42
  31488356.39 16891662.40 13289.42 31488356.39 16891662.40 14872.78
  31488904.55 16892210.56 13335.45 31488904.55 16892210.56 14899.08
  31489452.71 16892758.72 13371.87 31489452.71 16892758.72 14923.12
  31479036.79 16881248.21 13297.03 31479036.79 16881248.21 14798.73
  31479584.95 16881796.37 13274.37 31479584.95 16881796.37 14781.31
  31480133.11 16882344.53 13251.66 31480133.11 16882344.53 14756.37
  31480681.27 16882892.69 13230.98 31480681.27 16882892.69 14729.53
  31481229.44 16883440.85 13214.24 31481229.44 16883440.85 14704.57
  31481777.60 16883989.01 13199.98 31481777.60 16883989.01 14691.12
  31482325.76 16884537.17 13184.07 31482325.76 16884537.17 14692.97
  31482873.92 16885085.33 13175.56 31482873.92 16885085.33 14707.02
  31483422.08 16885633.50 13178.55 31483422.08 16885633.50 14724.85
  31483970.24 16886181.66 13184.60 31483970.24 16886181.66 14736.38
  31484518.40 16886729.82 13195.87 31484518.40 16886729.82 14739.57
  31485066.56 16887277.98 13220.79 31485066.56 16887277.98 14741.96
  31485614.72 16887826.14 13254.83 31485614.72 16887826.14 14754.59
  31486162.88 16888374.30 13277.65 31486162.88 16888374.30 14776.66
  31486711.04 16888922.46 13276.30 31486711.04 16888922.46 14795.44
  31487259.20 16889470.62 13244.28 31487259.20 16889470.62 14804.68
  31487807.37 16890018.78 13217.48 31487807.37 16890018.78 14810.89
  31488355.53 16890566.94 13227.27 31488355.53 16890566.94 14819.88
  31488903.69 16891115.10 13266.40 31488903.69 16891115.10 14835.21
  31489451.85 16891663.26 13314.03 31489451.85 16891663.26 14858.38
  31490000.01 16892211.42 13360.44 31490000.01 16892211.42 14883.55
  31479584.09 16880700.91 13297.75 31479584.09 16880700.91 14785.85
  31480132.25 16881249.07 13281.36 31480132.25 16881249.07 14771.30
  31480680.41 16881797.23 13264.33 31480680.41 16881797.23 14750.43
  31481228.57 16882345.39 13250.22 31481228.57 16882345.39 14729.72
  31481776.73 16882893.56 13239.27 31481776.73 16882893.56 14711.81
  31482324.89 16883441.72 13228.01 31482324.89 16883441.72 14702.56
  31482873.05 16883989.88 13214.11 31482873.05 16883989.88 14706.64
  31483421.21 16884538.04 13199.43 31483421.21 16884538.04 14721.45
  31483969.38 16885086.20 13194.85 31483969.38 16885086.20 14739.42
  31484517.54 16885634.36 13195.70 31484517.54 16885634.36 14750.51
  31485065.70 16886182.52 13201.69 31485065.70 16886182.52 14754.65
  31485613.86 16886730.68 13219.82 31485613.86 16886730.68 14761.17
  31486162.02 16887278.84 13240.68 31486162.02 16887278.84 14778.06
  31486710.18 16887827.00 13258.47 31486710.18 16887827.00 14800.54
  31487258.34 16888375.16 13268.38 31487258.34 16888375.16 14816.33
  31487806.50 16888923.32 13255.63 31487806.50 16888923.32 14818.31
  31488354.66 16889471.49 13229.44 31488354.66 16889471.49 14808.45
  31488902.82 16890019.65 13227.28 31488902.82 16890019.65 14799.63
  31489450.98 16890567.81 13248.50 31489450.98 16890567.81 14799.70
  31489999.14 16891115.97 13283.69 31489999.14 16891115.97 14812.04
  31490547.30 16891664.13 13325.77 31490547.30 16891664.13 14830.29
  31480131.39 16880153.62 13285.10 31480131.39 16880153.62 14769.53
  31480679.55 16880701.78 13274.85 31480679.55 16880701.78 14757.03
  31481227.71 16881249.94 13265.87 31481227.71 16881249.94 14739.41
  31481775.87 16881798.10 13260.16 31481775.87 16881798.10 14722.86
  31482324.03 16882346.26 13258.87 31482324.03 16882346.26 14712.26
  31482872.19 16882894.42 13256.10 31482872.19 16882894.42 14710.01
  31483420.35 16883442.58 13244.15 31483420.35 16883442.58 14717.55
  31483968.51 16883990.74 13228.65 31483968.51 16883990.74 14734.39
  31484516.67 16884538.90 13218.98 31484516.67 16884538.90 14756.21
  31485064.83 16885087.06 13214.15 31485064.83 16885087.06 14775.06
  31485612.99 16885635.22 13214.27 31485612.99 16885635.22 14788.01
  31486161.15 16886183.38 13226.01 31486161.15 16886183.38 14799.76
  31486709.31 16886731.55 13238.12 31486709.31 16886731.55 14815.37
  31487257.48 16887279.71 13248.11 31487257.48 16887279.71 14830.78
  31487805.64 16887827.87 13264.56 31487805.64 16887827.87 14835.91
  31488353.80 16888376.03 13266.67 31488353.80 16888376.03 14825.87
  31488901.96 16888924.19 13249.73 31488901.96 16888924.19 14803.98
  31489450.12 16889472.35 13236.75 31489450.12 16889472.35 14780.73
  31489998.28 16890020.51 13241.18 31489998.28 16890020.51 14764.71
  31490546.44 16890568.67 13256.69 31490546.44 16890568.67 14758.66
  31491094.60 16891116.83 13278.45 31491094.60 16891116.83 14762.38
  31480678.68 16879606.32 13266.91 31480678.68 16879606.32 14751.65
  31481226.84 16880154.48 13259.45 31481226.84 16880154.48 14740.80
  31481775.00 16880702.64 13253.81 31481775.00 16880702.64 14725.80
  31482323.16 16881250.80 13255.28 31482323.16 16881250.80 14712.45
  31482871.32 16881798.96 13263.72 31482871.32 16881798.96 14707.60
  31483419.49 16882347.12 13274.86 31483419.49 16882347.12 14713.46
  31483967.65 16882895.28 13276.07 31483967.65 16882895.28 14727.61
  31484515.81 16883443.45 13265.15 31484515.81 16883443.45 14748.60
  31485063.97 16883991.61 13255.42 31485063.97 16883991.61 14776.32
  31485612.13 16884539.77 13244.84 31485612.13 16884539.77 14804.58
  31486160.29 16885087.93 13233.32 31486160.29 16885087.93 14824.79
  31486708.45 16885636.09 13237.98 31486708.45 16885636.09 14836.56
  31487256.61 16886184.25 13250.84 31487256.61 16886184.25 14844.04
  31487804.77 16886732.41 13261.57 31487804.77 16886732.41 14847.31
  31488352.93 16887280.57 13275.59 31488352.93 16887280.57 14839.75
  31488901.09 16887828.73 13282.96 31488901.09 16887828.73 14817.71
  31489449.25 16888376.89 13267.70 31489449.25 16888376.89 14787.51
  31489997.42 16888925.05 13246.42 31489997.42 16888925.05 14756.68
  31490545.58 16889473.21 13235.91 31490545.58 16889473.21 14729.62
  31491093.74 16890021.37 13236.38 31491093.74 16890021.37 14707.39
  31491641.90 16890569.54 13238.27 31491641.90 16890569.54 14694.65
  31481225.98 16879059.02 13249.85 31481225.98 16879059.02 14734.91
  31481774.14 16879607.18 13243.99 31481774.14 16879607.18 14725.77
  31482322.30 16880155.35 13237.74 31482322.30 16880155.35 14712.73
  31482870.46 16880703.51 13239.46 31482870.46 16880703.51 14701.50
  31483418.62 16881251.67 13252.66 31483418.62 16881251.67 14700.38
  31483966.78 16881799.83 13276.20 31483966.78 16881799.83 14712.15
  31484514.94 16882347.99 13297.43 31484514.94 16882347.99 14732.78
  31485063.10 16882896.15 13301.99 31485063.10 16882896.15 14760.67
  31485611.26 16883444.31 13294.51 31485611.26 16883444.31 14794.62
  31486159.43 16883992.47 13279.08 31486159.43 16883992.47 14827.21
  31486707.59 16884540.63 13259.30 31486707.59 16884540.63 14846.03
  31487255.75 16885088.79 13259.21 31487255.75 16885088.79 14850.13
  31487803.91 16885636.95 13279.31 31487803.91 16885636.95 14845.93
  31488352.07 16886185.11 13297.05 31488352.07 16886185.11 14837.12
  31488900.23 16886733.27 13307.86 31488900.23 16886733.27 14820.48
  31489448.39 16887281.44 13303.66 31489448.39 16887281.44 14794.55
  31489996.55 16887829.60 13281.06 31489996.55 16887829.60 14761.55
  31490544.71 16888377.76 13252.08 31490544.71 16888377.76 14727.45
  31491092.87 16888925.92 13228.21 31491092.87 16888925.92 14695.23
  31491641.03 16889474.08 13217.56 31491641.03 16889474.08 14667.86
  31492189.19 16890022.24 13214.72 31492189.19 16890022.24 14649.40
  31481773.27 16878511.73 13243.52 31481773.27 16878511.73 14721.77
  31482321.44 16879059.89 13240.13 31482321.44 16879059.89 14714.78
  31482869.60 16879608.05 13233.31 31482869.60 16879608.05 14702.12
  31483417.76 16880156.21 13227.93 31483417.76 16880156.21 14691.02
  31483965.92 16880704.37 13233.33 31483965.92 16880704.37 14690.22
  31484514.08 16881252.53 13261.22 31484514.08 16881252.53 14704.68
  31485062.24 16881800.69 13297.58 31485062.24 16881800.69 14732.04
  31485610.40 16882348.85 13318.48 31485610.40 16882348.85 14766.95
  31486158.56 16882897.01 13313.99 31486158.56 16882897.01 14801.05
  31486706.72 16883445.17 13291.96 31486706.72 16883445.17 14827.80
  31487254.88 16883993.34 13269.88 31487254.88 16883993.34 14837.83
  31487803.04 16884541.50 13274.98 31487803.04 16884541.50 14832.34
  31488351.20 16885089.66 13302.81 31488351.20 16885089.66 14819.58
  31488899.36 16885637.82 13331.21 31488899.36 16885637.82 14805.02
  31489447.53 16886185.98 13341.99 31489447.53 16886185.98 14787.73
  31489995.69 16886734.14 13331.00 31489995.69 16886734.14 14764.09
  31490543.85 16887282.30 13301.05 31490543.85 16887282.30 14735.15
  31491092.01 16887830.46 13268.20 31491092.01 16887830.46 14702.56
  31491640.17 16888378.62 13238.87 31491640.17 16888378.62 14669.73
  31492188.33 16888926.78 13215.92 31492188.33 16888926.78 14642.64
  31492736.49 16889474.94 13208.25 31492736.49 16889474.94 14627.98
  31482320.57 16877964.43 13250.21 31482320.57 16877964.43 14714.85
  31482868.73 16878512.59 13249.57 31482868.73 16878512.59 14708.25
  31483416.89 16879060.75 13243.06 31483416.89 16879060.75 14694.33
  31483965.05 16879608.91 13234.83 31483965.05 16879608.91 14681.33
  31484513.21 16880157.07 13231.32 31484513.21 16880157.07 14680.65
  31485061.37 16880705.23 13248.85 31485061.37 16880705.23 14697.87
  31485609.54 16881253.40 13287.43 31485609.54 16881253.40 14731.41
  31486157.70 16881801.56 13314.58 31486157.70 16881801.56 14768.76
  31486705.86 16882349.72 13318.11 31486705.86 16882349.72 14796.08
  31487254.02 16882897.88 13297.08 31487254.02 16882897.88 14808.11
  31487802.18 16883446.04 13277.96 31487802.18 16883446.04 14806.46
  31488350.34 16883994.20 13285.73 31488350.34 16883994.20 14794.29
  31488898.50 16884542.36 13318.25 31488898.50 16884542.36 14779.69
  31489446.66 16885090.52 13347.46 31489446.66 16885090.52 14767.32
  31489994.82 16885638.68 13364.64 31489994.82 16885638.68 14753.82
  31490542.98 16886186.84 13361.00 31490542.98 16886186.84 14736.46
  31491091.14 16886735.00 13334.58 31491091.14 16886735.00 14715.39
  31491639.30 16887283.16 13297.66 31491639.30 16887283.16 14690.11
  31492187.46 16887831.33 13260.58 31492187.46 16887831.33 14661.60
  31492735.63 16888379.49 13227.51 31492735.63 16888379.49 14637.44
  31493283.79 16888927.65 13210.64 31493283.79 16888927.65 14626.16
  31482867.87 16877417.13 13260.06 31482867.87 16877417.13 14712.51
  31483416.03 16877965.30 13261.75 31483416.03 16877965.30 14706.27
  31483964.19 16878513.46 13258.18 31483964.19 16878513.46 14692.94
  31484512.35 16879061.62 13254.48 31484512.35 16879061.62 14681.41
  31485060.51 16879609.78 13251.77 31485060.51 16879609.78 14683.42
  31485608.67 16880157.94 13256.79 31485608.67 16880157.94 14707.14
  31486156.83 16880706.10 13272.88 31486156.83 16880706.10 14743.96
  31486704.99 16881254.26 13295.19 31486704.99 16881254.26 14776.25
  31487253.15 16881802.42 13307.21 31487253.15 16881802.42 14791.56
  31487801.31 16882350.58 13304.45 31487801.31 16882350.58 14786.54
  31488349.47 16882898.74 13294.80 31488349.47 16882898.74 14771.38
  31488897.64 16883446.90 13301.91 31488897.64 16883446.90 14755.33
  31489445.80 16883995.06 13320.19 31489445.80 16883995.06 14743.20
  31489993.96 16884543.22 13339.75 31489993.96 16884543.22 14733.40
  31490542.12 16885091.39 13361.01 31490542.12 16885091.39 14724.92
  31491090.28 16885639.55 13375.58 31491090.28 16885639.55 14717.67
  31491638.44 16886187.71 13362.47 31491638.44 16886187.71 14707.88
  31492186.60 16886735.87 13324.87 31492186.60 16886735.87 14691.88
  31492734.76 16887284.03 13278.37 31492734.76 16887284.03 14670.30
  31493282.92 16887832.19 13237.64 31493282.92 16887832.19 14649.88
  31493831.08 16888380.35 13214.81 31493831.08 16888380.35 14638.62
  31483415.16 16876869.84 13266.39 31483415.16 16876869.84 14710.26
  31483963.32 16877418.00 13267.75 31483963.32 16877418.00 14706.09
  31484511.48 16877966.16 13265.13 31484511.48 16877966.16 14698.10
  31485059.65 16878514.32 13265.12 31485059.65 16878514.32 14691.52
  31485607.81 16879062.48 13266.10 31485607.81 16879062.48 14697.33
  31486155.97 16879610.64 13262.70 31486155.97 16879610.64 14729.88
  31486704.13 16880158.80 13257.84 31486704.13 16880158.80 14768.29
  31487252.29 16880706.96 13261.88 31487252.29 16880706.96 14792.70
  31487800.45 16881255.12 13280.02 31487800.45 16881255.12 14792.93
  31488348.61 16881803.29 13295.44 31488348.61 16881803.29 14769.90
  31488896.77 16882351.45 13300.38 31488896.77 16882351.45 14743.62
  31489444.93 16882899.61 13303.69 31489444.93 16882899.61 14726.92
  31489993.09 16883447.77 13308.01 31489993.09 16883447.77 14714.52
  31490541.25 16883995.93 13313.65 31490541.25 16883995.93 14705.01
  31491089.41 16884544.09 13337.43 31491089.41 16884544.09 14703.18
  31491637.58 16885092.25 13363.85 31491637.58 16885092.25 14708.82
  31492185.74 16885640.41 13367.31 31492185.74 16885640.41 14712.82
  31492733.90 16886188.57 13336.03 31492733.90 16886188.57 14705.44
  31493282.06 16886736.73 13292.72 31493282.06 16886736.73 14688.66
  31493830.22 16887284.89 13257.84 31493830.22 16887284.89 14669.60
  31494378.38 16887833.05 13234.67 31494378.38 16887833.05 14655.78
  31483962.46 16876322.54 13265.59 31483962.46 16876322.54 14707.37
  31484510.62 16876870.70 13264.96 31484510.62 16876870.70 14705.99
  31485058.78 16877418.86 13260.25 31485058.78 16877418.86 14703.71
  31485606.94 16877967.02 13259.10 31485606.94 16877967.02 14705.52
  31486155.10 16878515.18 13259.63 31486155.10 16878515.18 14716.34
  31486703.26 16879063.35 13255.19 31486703.26 16879063.35 14748.48
  31487251.42 16879611.51 13245.29 31487251.42 16879611.51 14785.05
  31487799.59 16880159.67 13238.68 31487799.59 16880159.67 14798.13
  31488347.75 16880707.83 13251.97 31488347.75 16880707.83 14784.29
  31488895.91 16881255.99 13276.52 31488895.91 16881255.99 14752.04
  31489444.07 16881804.15 13291.90 31489444.07 16881804.15 14722.47
  31489992.23 16882352.31 13297.38 31489992.23 16882352.31 14702.76
  31490540.39 16882900.47 13297.15 31490540.39 16882900.47 14690.20
  31491088.55 16883448.63 13302.18 31491088.55 16883448.63 14685.30
  31491636.71 16883996.79 13322.90 31491636.71 16883996.79 14691.78
  31492184.87 16884544.95 13351.10 31492184.87 16884544.95 14707.84
  31492733.03 16885093.11 13361.15 31492733.03 16885093.11 14722.80
  31493281.19 16885641.28 13345.44 31493281.19 16885641.28 14724.22
  31493829.35 16886189.44 13311.84 31493829.35 16886189.44 14708.76
  31494377.51 16886737.60 13281.54 31494377.51 16886737.60 14688.42
  31494925.68 16887285.76 13260.01 31494925.68 16887285.76 14674.71
  31484509.76 16875775.25 13258.26 31484509.76 16875775.25 14704.28
  31485057.92 16876323.41 13255.67 31485057.92 16876323.41 14705.36
  31485606.08 16876871.57 13251.41 31485606.08 16876871.57 14707.57
  31486154.24 16877419.73 13248.83 31486154.24 16877419.73 14714.41
  31486702.40 16877967.89 13250.92 31486702.40 16877967.89 14729.79
  31487250.56 16878516.05 13250.32 31487250.56 16878516.05 14752.81
  31487798.72 16879064.21 13243.64 31487798.72 16879064.21 14773.24
  31488346.88 16879612.37 13238.26 31488346.88 16879612.37 14775.36
  31488895.04 16880160.53 13244.36 31488895.04 16880160.53 14755.91
  31489443.20 16880708.69 13265.48 31489443.20 16880708.69 14726.91
  31489991.36 16881256.85 13286.83 31489991.36 16881256.85 14700.26
  31490539.52 16881805.01 13296.16 31490539.52 16881805.01 14681.77
  31491087.69 16882353.17 13300.47 31491087.69 16882353.17 14672.87
  31491635.85 16882901.34 13311.94 31491635.85 16882901.34 14675.96
  31492184.01 16883449.50 13333.71 31492184.01 16883449.50 14691.19
  31492732.17 16883997.66 13352.81 31492732.17 16883997.66 14713.53
  31493280.33 16884545.82 13363.63 31493280.33 16884545.82 14733.22
  31493828.49 16885093.98 13356.61 31493828.49 16885093.98 14739.46
  31494376.65 16885642.14 13330.71 31494376.65 16885642.14 14727.00
  31494924.81 16886190.30 13300.35 31494924.81 16886190.30 14705.62
  31495472.97 16886738.46 13276.12 31495472.97 16886738.46 14692.44
  31485057.05 16875227.95 13248.66 31485057.05 16875227.95 14701.90
  31485605.21 16875776.11 13244.10 31485605.21 16875776.11 14700.45
  31486153.37 16876324.27 13241.97 31486153.37 16876324.27 14703.00
  31486701.53 16876872.43 13243.04 31486701.53 16876872.43 14711.01
  31487249.70 16877420.59 13248.86 31487249.70 16877420.59 14721.98
  31487797.86 16877968.75 13254.07 31487797.86 16877968.75 14733.02