
GRIDUNIT                               -- Generated : Petrel
  METRES MAP /

SPECGRID                               -- Generated : Petrel
  20 24 43 1 F /

COORDSYS                               -- Generated : Petrel
  1 43 /
  
COORD
9593309.0700 5146905.8000    4054.1700 9593309.0700 5146905.8000    4455.1600   
9593476.1500 5147072.8800    4054.1900 9593476.1500 5147072.8800    4458.5500   
9593643.2300 5147239.9600    4050.8300 9593643.2300 5147239.9600    4465.8100   
9593810.3100 5147407.0400    4046.1800 9593810.3100 5147407.0400    4475.7300   
9593977.3900 5147574.1200    4043.1400 9593977.3900 5147574.1200    4485.7600   
9594144.4700 5147741.1900    4043.4900 9594144.4700 5147741.1900    4494.3100   
9594311.5500 5147908.2700    4046.8500 9594311.5500 5147908.2700    4501.9300   
9594478.6300 5148075.3500    4051.3800 9594478.6300 5148075.3500    4508.7900   
9594645.7100 5148242.4300    4055.2700 9594645.7100 5148242.4300    4514.7200   
9594812.7900 5148409.5100    4056.4500 9594812.7900 5148409.5100    4519.6100   
9594979.8700 5148576.5900    4055.0000 9594979.8700 5148576.5900    4523.5200   
9595146.9400 5148743.6700    4052.7600 9595146.9400 5148743.6700    4527.1100   
9595314.0200 5148910.7500    4051.0900 9595314.0200 5148910.7500    4530.8100   
9595481.1000 5149077.8300    4050.7400 9595481.1000 5149077.8300    4534.7800   
9595648.1800 5149244.9100    4051.4300 9595648.1800 5149244.9100    4538.8100   
9595815.2600 5149411.9900    4053.5800 9595815.2600 5149411.9900    4542.0700   
9595982.3400 5149579.0700    4058.9200 9595982.3400 5149579.0700    4545.7900   
9596149.4200 5149746.1500    4067.9500 9596149.4200 5149746.1500    4552.6900   
9596316.5000 5149913.2300    4078.8100 9596316.5000 5149913.2300    4558.3900   
9596483.5800 5150080.3100    4089.6000 9596483.5800 5150080.3100    4562.3600   
9596650.6600 5150247.3900    4099.1400 9596650.6600 5150247.3900    4567.4700   
9593475.8900 5146738.9800    4048.3900 9593475.8900 5146738.9800    4450.5000   
9593642.9700 5146906.0600    4050.9700 9593642.9700 5146906.0600    4455.2600   
9593810.0500 5147073.1400    4049.8100 9593810.0500 5147073.1400    4464.0000   
9593977.1300 5147240.2200    4045.2600 9593977.1300 5147240.2200    4474.2200   
9594144.2000 5147407.3000    4040.1100 9594144.2000 5147407.3000    4482.9300   
9594311.2800 5147574.3800    4036.9100 9594311.2800 5147574.3800    4488.6300   
9594478.3600 5147741.4600    4036.4700 9594478.3600 5147741.4600    4493.0500   
9594645.4400 5147908.5400    4038.9500 9594645.4400 5147908.5400    4498.2600   
9594812.5200 5148075.6200    4042.8800 9594812.5200 5148075.6200    4503.9300   
9594979.6000 5148242.7000    4045.6500 9594979.6000 5148242.7000    4509.5800   
9595146.6800 5148409.7800    4046.1900 9595146.6800 5148409.7800    4514.7600   
9595313.7600 5148576.8500    4046.1800 9595313.7600 5148576.8500    4519.6300   
9595480.8400 5148743.9300    4047.0000 9595480.8400 5148743.9300    4524.9000   
9595647.9200 5148911.0100    4049.0300 9595647.9200 5148911.0100    4530.9300   
9595815.0000 5149078.0900    4052.2400 9595815.0000 5149078.0900    4537.2500   
9595982.0800 5149245.1700    4056.5600 9595982.0800 5149245.1700    4542.9500   
9596149.1600 5149412.2500    4062.2700 9596149.1600 5149412.2500    4547.6200   
9596316.2400 5149579.3300    4070.3400 9596316.2400 5149579.3300    4553.2300   
9596483.3200 5149746.4100    4080.0000 9596483.3200 5149746.4100    4559.0200   
9596650.4000 5149913.4900    4090.2500 9596650.4000 5149913.4900    4564.1900   
9596817.4800 5150080.5700    4100.6200 9596817.4800 5150080.5700    4569.7400   
9593642.7000 5146572.1700    4043.0900 9593642.7000 5146572.1700    4453.7000   
9593809.7800 5146739.2400    4047.4000 9593809.7800 5146739.2400    4459.3800   
9593976.8600 5146906.3200    4048.4100 9593976.8600 5146906.3200    4468.1900   
9594143.9400 5147073.4000    4045.3600 9594143.9400 5147073.4000    4476.6700   
9594311.0200 5147240.4800    4038.8400 9594311.0200 5147240.4800    4481.9700   
9594478.1000 5147407.5600    4032.0900 9594478.1000 5147407.5600    4484.2000   
9594645.1800 5147574.6400    4028.3600 9594645.1800 5147574.6400    4485.7500   
9594812.2600 5147741.7200    4028.2200 9594812.2600 5147741.7200    4488.8800   
9594979.3400 5147908.8000    4031.3000 9594979.3400 5147908.8000    4493.8000   
9595146.4200 5148075.8800    4035.3000 9595146.4200 5148075.8800    4499.3600   
9595313.5000 5148242.9600    4038.6300 9595313.5000 5148242.9600    4504.9300   
9595480.5800 5148410.0400    4041.7300 9595480.5800 5148410.0400    4510.7500   
9595647.6600 5148577.1200    4045.4700 9595647.6600 5148577.1200    4517.5000   
9595814.7400 5148744.2000    4049.1900 9595814.7400 5148744.2000    4525.4700   
9595981.8100 5148911.2800    4053.5500 9595981.8100 5148911.2800    4534.2700   
9596148.8900 5149078.3600    4058.8000 9596148.8900 5149078.3600    4542.5100   
9596315.9700 5149245.4400    4065.1600 9596315.9700 5149245.4400    4549.3300   
9596483.0500 5149412.5200    4072.6700 9596483.0500 5149412.5200    4555.1200   
9596650.1300 5149579.5900    4081.2400 9596650.1300 5149579.5900    4560.6000   
9596817.2100 5149746.6700    4090.8100 9596817.2100 5149746.6700    4566.0000   
9596984.2900 5149913.7500    4100.7100 9596984.2900 5149913.7500    4571.6300   
9593809.5200 5146405.3500    4037.6900 9593809.5200 5146405.3500    4463.0600   
9593976.6000 5146572.4300    4042.8300 9593976.6000 5146572.4300    4467.2100   
9594143.6800 5146739.5100    4044.4500 9594143.6800 5146739.5100    4473.2200   
9594310.7600 5146906.5900    4042.2300 9594310.7600 5146906.5900    4478.3500   
9594477.8400 5147073.6700    4036.3400 9594477.8400 5147073.6700    4480.1300   
9594644.9200 5147240.7500    4028.1300 9594644.9200 5147240.7500    4479.7700   
9594812.0000 5147407.8300    4022.2100 9594812.0000 5147407.8300    4480.1100   
9594979.0700 5147574.9100    4020.4100 9594979.0700 5147574.9100    4482.4200   
9595146.1500 5147741.9800    4022.8800 9595146.1500 5147741.9800    4486.8700   
9595313.2300 5147909.0600    4028.2300 9595313.2300 5147909.0600    4492.0900   
9595480.3100 5148076.1400    4034.0100 9595480.3100 5148076.1400    4497.3300   
9595647.3900 5148243.2200    4040.5900 9595647.3900 5148243.2200    4503.6100   
9595814.4700 5148410.3000    4046.7400 9595814.4700 5148410.3000    4511.9100   
9595981.5500 5148577.3800    4051.5000 9595981.5500 5148577.3800    4521.6500   
9596148.6300 5148744.4600    4055.2400 9596148.6300 5148744.4600    4532.0200   
9596315.7100 5148911.5400    4059.9800 9596315.7100 5148911.5400    4541.9600   
9596482.7900 5149078.6200    4065.7600 9596482.7900 5149078.6200    4550.2400   
9596649.8700 5149245.7000    4072.3300 9596649.8700 5149245.7000    4556.7400   
9596816.9500 5149412.7800    4080.2900 9596816.9500 5149412.7800    4562.0300   
9596984.0300 5149579.8600    4089.3000 9596984.0300 5149579.8600    4567.2900   
9597151.1100 5149746.9400    4098.8500 9597151.1100 5149746.9400    4573.2300   
9593976.3300 5146238.5300    4033.5900 9593976.3300 5146238.5300    4477.6500   
9594143.4100 5146405.6100    4037.5700 9594143.4100 5146405.6100    4477.9800   
9594310.4900 5146572.6900    4038.6100 9594310.4900 5146572.6900    4478.4000   
9594477.5700 5146739.7700    4035.1000 9594477.5700 5146739.7700    4478.0900   
9594644.6500 5146906.8500    4030.0200 9594644.6500 5146906.8500    4476.7900   
9594811.7300 5147073.9300    4023.4500 9594811.7300 5147073.9300    4475.2300   
9594978.8100 5147241.0100    4016.9400 9594978.8100 5147241.0100    4475.4800   
9595145.8900 5147408.0900    4014.7400 9595145.8900 5147408.0900    4478.4800   
9595312.9700 5147575.1700    4018.0900 9595312.9700 5147575.1700    4483.7700   
9595480.0500 5147742.2500    4025.5900 9595480.0500 5147742.2500    4490.0100   
9595647.1300 5147909.3300    4033.9100 9595647.1300 5147909.3300    4495.3100   
9595814.2100 5148076.4100    4042.4400 9595814.2100 5148076.4100    4501.3500   
9595981.2900 5148243.4900    4050.4300 9595981.2900 5148243.4900    4510.4300   
9596148.3700 5148410.5700    4055.7100 9596148.3700 5148410.5700    4521.3200   
9596315.4500 5148577.6500    4058.1600 9596315.4500 5148577.6500    4531.7200   
9596482.5300 5148744.7200    4060.0600 9596482.5300 5148744.7200    4541.3900   
9596649.6100 5148911.8000    4063.5100 9596649.6100 5148911.8000    4549.9400   
9596816.6800 5149078.8800    4069.4300 9596816.6800 5149078.8800    4556.6600   
9596983.7600 5149245.9600    4077.4400 9596983.7600 5149245.9600    4561.7700   
9597150.8400 5149413.0400    4085.9900 9597150.8400 5149413.0400    4566.9900   
9597317.9200 5149580.1200    4094.9500 9597317.9200 5149580.1200    4573.5500   
9594143.1500 5146071.7200    4032.1900 9594143.1500 5146071.7200    4494.0800   
9594310.2300 5146238.8000    4033.1600 9594310.2300 5146238.8000    4489.8000   
9594477.3100 5146405.8800    4032.3900 9594477.3100 5146405.8800    4484.1300   
9594644.3900 5146572.9600    4027.6900 9594644.3900 5146572.9600    4478.5800   
9594811.4700 5146740.0400    4021.7100 9594811.4700 5146740.0400    4473.8600   
9594978.5500 5146907.1100    4016.6600 9594978.5500 5146907.1100    4471.3400   
9595145.6300 5147074.1900    4011.7200 9595145.6300 5147074.1900    4471.8000   
9595312.7100 5147241.2700    4010.4600 9595312.7100 5147241.2700    4475.9000   
9595479.7900 5147408.3500    4016.0400 9595479.7900 5147408.3500    4483.0600   
9595646.8700 5147575.4300    4025.7600 9595646.8700 5147575.4300    4491.3600   
9595813.9400 5147742.5100    4036.9500 9595813.9400 5147742.5100    4498.1100   
9595981.0200 5147909.5900    4046.7700 9595981.0200 5147909.5900    4503.2300   
9596148.1000 5148076.6700    4055.2600 9596148.1000 5148076.6700    4511.0800   
9596315.1800 5148243.7500    4060.6400 9596315.1800 5148243.7500    4521.5000   
9596482.2600 5148410.8300    4060.4800 9596482.2600 5148410.8300    4530.5000   
9596649.3400 5148577.9100    4058.4100 9596649.3400 5148577.9100    4538.3400   
9596816.4200 5148744.9900    4058.5500 9596816.4200 5148744.9900    4546.3800   
9596983.5000 5148912.0700    4063.2600 9596983.5000 5148912.0700    4553.6000   
9597150.5800 5149079.1500    4072.0200 9597150.5800 5149079.1500    4559.1800   
9597317.6600 5149246.2300    4081.4600 9597317.6600 5149246.2300    4564.5000   
9597484.7400 5149413.3100    4089.2700 9597484.7400 5149413.3100    4571.2000   
9594309.9700 5145904.9000    4034.7300 9594309.9700 5145904.9000    4506.5800   
9594477.0500 5146071.9800    4030.7200 9594477.0500 5146071.9800    4499.3400   
9594644.1300 5146239.0600    4028.2900 9594644.1300 5146239.0600    4489.7700   
9594811.2000 5146406.1400    4023.0100 9594811.2000 5146406.1400    4480.7500   
9594978.2800 5146573.2200    4016.3800 9594978.2800 5146573.2200    4473.5100   
9595145.3600 5146740.3000    4010.3700 9595145.3600 5146740.3000    4469.3900   
9595312.4400 5146907.3800    4007.0400 9595312.4400 5146907.3800    4469.6300   
9595479.5200 5147074.4600    4007.9000 9595479.5200 5147074.4600    4474.4700   
9595646.6000 5147241.5400    4015.0200 9595646.6000 5147241.5400    4483.3100   
9595813.6800 5147408.6200    4026.7600 9595813.6800 5147408.6200    4492.8700   
9595980.7600 5147575.7000    4038.6400 9595980.7600 5147575.7000    4499.6500   
9596147.8400 5147742.7800    4050.1700 9596147.8400 5147742.7800    4504.2300   
9596314.9200 5147909.8500    4058.8700 9596314.9200 5147909.8500    4509.4000   
9596482.0000 5148076.9300    4062.4500 9596482.0000 5148076.9300    4517.0000   
9596649.0800 5148244.0100    4059.2600 9596649.0800 5148244.0100    4524.3100   
9596816.1600 5148411.0900    4052.9900 9596816.1600 5148411.0900    4530.3100   
9596983.2400 5148578.1700    4050.9200 9596983.2400 5148578.1700    4537.8500   
9597150.3200 5148745.2500    4054.9300 9597150.3200 5148745.2500    4546.3300   
9597317.4000 5148912.3300    4064.2900 9597317.4000 5148912.3300    4553.4400   
9597484.4800 5149079.4100    4074.4300 9597484.4800 5149079.4100    4559.4500   
9597651.5500 5149246.4900    4082.0900 9597651.5500 5149246.4900    4565.8100   
9594476.7800 5145738.0900    4041.4000 9594476.7800 5145738.0900    4512.4400   
9594643.8600 5145905.1700    4032.5100 9594643.8600 5145905.1700    4504.7500   
9594810.9400 5146072.2400    4028.1600 9594810.9400 5146072.2400    4494.4100   
9594978.0200 5146239.3200    4022.8200 9594978.0200 5146239.3200    4484.0700   
9595145.1000 5146406.4000    4016.0800 9595145.1000 5146406.4000    4475.4900   
9595312.1800 5146573.4800    4009.4400 9595312.1800 5146573.4800    4470.3200   
9595479.2600 5146740.5600    4005.9300 9595479.2600 5146740.5600    4470.0600   
9595646.3400 5146907.6400    4007.9100 9595646.3400 5146907.6400    4475.0800   
9595813.4200 5147074.7200    4014.7900 9595813.4200 5147074.7200    4483.7300   
9595980.5000 5147241.8000    4024.5300 9595980.5000 5147241.8000    4492.4200   
9596147.5800 5147408.8800    4035.1400 9596147.5800 5147408.8800    4497.3400   
9596314.6600 5147575.9600    4046.3400 9596314.6600 5147575.9600    4499.9300   
9596481.7400 5147743.0400    4056.7500 9596481.7400 5147743.0400    4503.7100   
9596648.8100 5147910.1200    4059.9100 9596648.8100 5147910.1200    4509.0000   
9596815.8900 5148077.2000    4053.3600 9596815.8900 5148077.2000    4514.2500   
9596982.9700 5148244.2800    4044.2400 9596982.9700 5148244.2800    4519.4700   
9597150.0500 5148411.3600    4040.9800 9597150.0500 5148411.3600    4526.6200   
9597317.1300 5148578.4400    4046.5400 9597317.1300 5148578.4400    4535.7400   
9597484.2100 5148745.5200    4057.3500 9597484.2100 5148745.5200    4544.3800   
9597651.2900 5148912.5900    4068.6900 9597651.2900 5148912.5900    4551.6300   
9597818.3700 5149079.6700    4076.9300 9597818.3700 5149079.6700    4558.1100   
9594643.6000 5145571.2700    4048.0200 9594643.6000 5145571.2700    4512.9600   
9594810.6800 5145738.3500    4039.7100 9594810.6800 5145738.3500    4506.4800   
9594977.7600 5145905.4300    4032.6200 9594977.7600 5145905.4300    4497.2000   
9595144.8400 5146072.5100    4026.5500 9595144.8400 5146072.5100    4487.3800   
9595311.9200 5146239.5900    4020.7700 9595311.9200 5146239.5900    4478.7200   
9595479.0000 5146406.6700    4014.8000 9595479.0000 5146406.6700    4473.6900   
9595646.0700 5146573.7500    4010.3700 9595646.0700 5146573.7500    4473.5500   
9595813.1500 5146740.8300    4010.5400 9595813.1500 5146740.8300    4478.1500   
9595980.2300 5146907.9100    4014.6700 9595980.2300 5146907.9100    4485.0700   
9596147.3100 5147074.9800    4020.2200 9596147.3100 5147074.9800    4490.9900   
9596314.3900 5147242.0600    4026.9600 9596314.3900 5147242.0600    4493.7200   
9596481.4700 5147409.1400    4037.1000 9596481.4700 5147409.1400    4494.5400   
9596648.5500 5147576.2200    4048.1700 9596648.5500 5147576.2200    4497.4600   
9596815.6300 5147743.3000    4053.9900 9596815.6300 5147743.3000    4503.0800   
9596982.7100 5147910.3800    4048.6000 9596982.7100 5147910.3800    4508.0600   
9597149.7900 5148077.4600    4037.2700 9597149.7900 5148077.4600    4512.3100   
9597316.8700 5148244.5400    4031.6200 9597316.8700 5148244.5400    4518.0300   
9597483.9500 5148411.6200    4037.7300 9597483.9500 5148411.6200    4525.1900   
9597651.0300 5148578.7000    4050.6200 9597651.0300 5148578.7000    4533.2200   
9597818.1100 5148745.7800    4064.6500 9597818.1100 5148745.7800    4541.2400   
9597985.1900 5148912.8600    4075.7500 9597985.1900 5148912.8600    4548.5700   
9594810.4100 5145404.4500    4052.9400 9594810.4100 5145404.4500    4510.6500   
9594977.4900 5145571.5300    4046.0300 9594977.4900 5145571.5300    4505.3400   
9595144.5700 5145738.6100    4039.1000 9595144.5700 5145738.6100    4497.7400   
9595311.6500 5145905.6900    4032.8000 9595311.6500 5145905.6900    4489.5600   
9595478.7300 5146072.7700    4027.7000 9595478.7300 5146072.7700    4481.9500   
9595645.8100 5146239.8500    4023.3500 9595645.8100 5146239.8500    4477.8500   
9595812.8900 5146406.9300    4018.5000 9595812.8900 5146406.9300    4478.4200   
9595979.9700 5146574.0100    4015.9100 9595979.9700 5146574.0100    4482.7000   
9596147.0500 5146741.0900    4016.8200 9596147.0500 5146741.0900    4488.1300   
9596314.1300 5146908.1700    4018.6700 9596314.1300 5146908.1700    4491.6500   
9596481.2100 5147075.2500    4022.1000 9596481.2100 5147075.2500    4492.6200   
9596648.2900 5147242.3300    4029.7000 9596648.2900 5147242.3300    4493.3500   
9596815.3700 5147409.4100    4040.0700 9596815.3700 5147409.4100    4497.2000   
9596982.4500 5147576.4900    4047.0300 9596982.4500 5147576.4900    4503.9300   
9597149.5300 5147743.5700    4046.6200 9597149.5300 5147743.5700    4509.6500   
9597316.6100 5147910.6500    4036.8600 9597316.6100 5147910.6500    4512.4700   
9597483.6800 5148077.7200    4028.6900 9597483.6800 5148077.7200    4514.3600   
9597650.7600 5148244.8000    4031.6700 9597650.7600 5148244.8000    4517.1000   
9597817.8400 5148411.8800    4043.6000 9597817.8400 5148411.8800    4521.7700   
9597984.9200 5148578.9600    4058.1200 9597984.9200 5148578.9600    4528.8300   
9598152.0000 5148746.0400    4072.2600 9598152.0000 5148746.0400    4536.5100   
9594977.2300 5145237.6400    4053.1500 9594977.2300 5145237.6400    4506.7300   
9595144.3100 5145404.7200    4048.1600 9595144.3100 5145404.7200    4502.2900   
9595311.3900 5145571.8000    4042.9700 9595311.3900 5145571.8000    4495.9300   
9595478.4700 5145738.8800    4038.6700 9595478.4700 5145738.8800    4489.6200   
9595645.5500 5145905.9600    4035.3300 9595645.5500 5145905.9600    4484.1600   
9595812.6300 5146073.0400    4031.9000 9595812.6300 5146073.0400    4481.3400   
9595979.7100 5146240.1100    4027.6600 9595979.7100 5146240.1100    4482.5800   
9596146.7900 5146407.1900    4023.1900 9596146.7900 5146407.1900    4487.1000   
9596313.8700 5146574.2700    4021.7900 9596313.8700 5146574.2700    4492.5700   
9596480.9400 5146741.3500    4022.0500 9596480.9400 5146741.3500    4495.9500   
9596648.0200 5146908.4300    4023.8700 9596648.0200 5146908.4300    4497.2200   
9596815.1000 5147075.5100    4029.4000 9596815.1000 5147075.5100    4499.2000   
9596982.1800 5147242.5900    4035.7600 9596982.1800 5147242.5900    4504.3500   
9597149.2600 5147409.6700    4041.1800 9597149.2600 5147409.6700    4511.2000   
9597316.3400 5147576.7500    4044.2000 9597316.3400 5147576.7500    4516.0200   
9597483.4200 5147743.8300    4040.3200 9597483.4200 5147743.8300    4516.6200   
9597650.5000 5147910.9100    4032.3300 9597650.5000 5147910.9100    4513.6100   
9597817.5800 5148077.9900    4031.6700 9597817.5800 5148077.9900    4510.9300   
9597984.6600 5148245.0700    4038.1400 9597984.6600 5148245.0700    4510.9500   
9598151.7400 5148412.1500    4048.8700 9598151.7400 5148412.1500    4514.7100   
9598318.8200 5148579.2300    4061.7000 9598318.8200 5148579.2300    4520.2700   
9595144.0500 5145070.8200    4049.3000 9595144.0500 5145070.8200    4501.7500   
9595311.1300 5145237.9000    4046.1700 9595311.1300 5145237.9000    4497.9400   
9595478.2100 5145404.9800    4043.4400 9595478.2100 5145404.9800    4492.5700   
9595645.2800 5145572.0600    4041.7000 9595645.2800 5145572.0600    4487.5300   
9595812.3600 5145739.1400    4041.3000 9595812.3600 5145739.1400    4484.3000   
9595979.4400 5145906.2200    4040.4600 9595979.4400 5145906.2200    4483.6100   
9596146.5200 5146073.3000    4036.8200 9596146.5200 5146073.3000    4485.9100   
9596313.6000 5146240.3800    4032.0900 9596313.6000 5146240.3800    4491.0400   
9596480.6800 5146407.4600    4029.1500 9596480.6800 5146407.4600    4497.6900   
9596647.7600 5146574.5400    4027.6700 9596647.7600 5146574.5400    4503.4400   
9596814.8400 5146741.6200    4027.7100 9596814.8400 5146741.6200    4507.3800   
9596981.9200 5146908.7000    4031.2900 9596981.9200 5146908.7000    4510.9700   
9597149.0000 5147075.7800    4034.9800 9597149.0000 5147075.7800    4515.7300   
9597316.0800 5147242.8500    4038.0200 9597316.0800 5147242.8500    4520.4200   
9597483.1600 5147409.9300    4043.0400 9597483.1600 5147409.9300    4521.9800   
9597650.2400 5147577.0100    4043.6800 9597650.2400 5147577.0100    4518.9200   
9597817.3200 5147744.0900    4038.5200 9597817.3200 5147744.0900    4512.2500   
9597984.4000 5147911.1700    4034.5600 9597984.4000 5147911.1700    4505.1700   
9598151.4800 5148078.2500    4035.9100 9598151.4800 5148078.2500    4500.2800   
9598318.5600 5148245.3300    4040.6400 9598318.5600 5148245.3300    4498.4400   
9598485.6300 5148412.4100    4047.2700 9598485.6300 5148412.4100    4499.5700   
9595310.8600 5144904.0100    4043.7500 9595310.8600 5144904.0100    4496.3000   
9595477.9400 5145071.0900    4041.4800 9595477.9400 5145071.0900    4493.0000   
9595645.0200 5145238.1700    4039.7600 9595645.0200 5145238.1700    4488.4200   
9595812.1000 5145405.2400    4040.2100 9595812.1000 5145405.2400    4484.3500   
9595979.1800 5145572.3200    4042.7800 9595979.1800 5145572.3200    4482.8800   
9596146.2600 5145739.4000    4046.1800 9596146.2600 5145739.4000    4484.6600   
9596313.3400 5145906.4800    4046.5500 9596313.3400 5145906.4800    4488.9800   
9596480.4200 5146073.5600    4043.2200 9596480.4200 5146073.5600    4495.3700   
9596647.5000 5146240.6400    4040.2500 9596647.5000 5146240.6400    4503.8200   
9596814.5800 5146407.7200    4037.0300 9596814.5800 5146407.7200    4512.4300   
9596981.6600 5146574.8000    4033.5200 9596981.6600 5146574.8000    4518.5900   
9597148.7400 5146741.8800    4034.9400 9597148.7400 5146741.8800    4522.1800   
9597315.8200 5146908.9600    4038.8600 9597315.8200 5146908.9600    4524.4600   
9597482.8900 5147076.0400    4042.1300 9597482.8900 5147076.0400    4525.4600   
9597649.9700 5147243.1200    4046.4000 9597649.9700 5147243.1200    4523.1600   
9597817.0500 5147410.2000    4048.6500 9597817.0500 5147410.2000    4516.4400   
9597984.1300 5147577.2800    4044.0000 9597984.1300 5147577.2800    4507.2300   
9598151.2100 5147744.3600    4037.5100 9598151.2100 5147744.3600    4497.8400   
9598318.2900 5147911.4400    4034.3000 9598318.2900 5147911.4400    4489.5900   
9598485.3700 5148078.5200    4034.4500 9598485.3700 5148078.5200    4482.8100   
9598652.4500 5148245.5900    4035.0300 9598652.4500 5148245.5900    4478.9300   
9595477.6800 5144737.1900    4038.5500 9595477.6800 5144737.1900    4491.2000   
9595644.7600 5144904.2700    4036.7700 9595644.7600 5144904.2700    4488.4100   
9595811.8400 5145071.3500    4034.8600 9595811.8400 5145071.3500    4484.4400   
9595978.9200 5145238.4300    4035.3900 9595978.9200 5145238.4300    4481.0200   
9596146.0000 5145405.5100    4039.4100 9596146.0000 5145405.5100    4480.6800   
9596313.0800 5145572.5900    4046.5900 9596313.0800 5145572.5900    4484.2600   
9596480.1500 5145739.6700    4053.0600 9596480.1500 5145739.6700    4490.5500   
9596647.2300 5145906.7500    4054.4500 9596647.2300 5145906.7500    4499.0500   
9596814.3100 5146073.8300    4052.1700 9596814.3100 5146073.8300    4509.4000   
9596981.3900 5146240.9100    4047.4600 9596981.3900 5146240.9100    4519.3300   
9597148.4700 5146407.9800    4041.4300 9597148.4700 5146407.9800    4525.0700   
9597315.5500 5146575.0600    4041.4100 9597315.5500 5146575.0600    4526.3200   
9597482.6300 5146742.1400    4047.5300 9597482.6300 5146742.1400    4525.0400   
9597649.7100 5146909.2200    4052.9400 9597649.7100 5146909.2200    4522.3500   
9597816.7900 5147076.3000    4056.2300 9597816.7900 5147076.3000    4517.2800   
9597983.8700 5147243.3800    4054.9500 9597983.8700 5147243.3800    4509.3800   
9598150.9500 5147410.4600    4048.0700 9598150.9500 5147410.4600    4499.3200   
9598318.0300 5147577.5400    4039.2300 9598318.0300 5147577.5400    4488.9300   
9598485.1100 5147744.6200    4031.9600 9598485.1100 5147744.6200    4479.1100   
9598652.1900 5147911.7000    4028.7100 9598652.1900 5147911.7000    4470.7600   
9598819.2700 5148078.7800    4027.8500 9598819.2700 5148078.7800    4465.1400   
9595644.4900 5144570.3700    4036.6200 9595644.4900 5144570.3700    4487.1900   
9595811.5700 5144737.4500    4035.5900 9595811.5700 5144737.4500    4485.0700   
9595978.6500 5144904.5300    4033.5100 9595978.6500 5144904.5300    4481.2100   
9596145.7300 5145071.6100    4031.8700 9596145.7300 5145071.6100    4477.8200   
9596312.8100 5145238.6900    4033.5200 9596312.8100 5145238.6900    4477.5800   
9596479.8900 5145405.7700    4042.0200 9596479.8900 5145405.7700    4481.9900   
9596646.9700 5145572.8500    4053.1000 9596646.9700 5145572.8500    4490.3300   
9596814.0500 5145739.9300    4059.4700 9596814.0500 5145739.9300    4500.9700   
9596981.1300 5145907.0100    4058.1000 9596981.1300 5145907.0100    4511.3600   
9597148.2100 5146074.0900    4051.3900 9597148.2100 5146074.0900    4519.5100   
9597315.2900 5146241.1700    4044.6600 9597315.2900 5146241.1700    4522.5700   
9597482.3700 5146408.2500    4046.2100 9597482.3700 5146408.2500    4520.9000   
9597649.4500 5146575.3300    4054.7000 9597649.4500 5146575.3300    4517.0100   
9597816.5300 5146742.4100    4063.3500 9597816.5300 5146742.4100    4512.5700   
9597983.6100 5146909.4900    4066.6400 9597983.6100 5146909.4900    4507.3000   
9598150.6900 5147076.5700    4063.2900 9598150.6900 5147076.5700    4500.0900   
9598317.7600 5147243.6400    4054.1600 9598317.7600 5147243.6400    4491.2700   
9598484.8400 5147410.7200    4044.1500 9598484.8400 5147410.7200    4481.3400   
9598651.9200 5147577.8000    4035.2100 9598651.9200 5147577.8000    4471.3300   
9598819.0000 5147744.8800    4028.2100 9598819.0000 5147744.8800    4463.0800   
9598986.0800 5147911.9600    4025.8700 9598986.0800 5147911.9600    4458.6100   
9595811.3100 5144403.5600    4038.6600 9595811.3100 5144403.5600    4485.0900   
9595978.3900 5144570.6400    4038.4700 9595978.3900 5144570.6400    4483.0800   
9596145.4700 5144737.7200    4036.4800 9596145.4700 5144737.7200    4478.8300   
9596312.5500 5144904.8000    4033.9800 9596312.5500 5144904.8000    4474.8700   
9596479.6300 5145071.8800    4032.9100 9596479.6300 5145071.8800    4474.6600   
9596646.7100 5145238.9600    4038.2500 9596646.7100 5145238.9600    4479.9100   
9596813.7900 5145406.0300    4050.0100 9596813.7900 5145406.0300    4490.1300   
9596980.8700 5145573.1100    4058.2800 9596980.8700 5145573.1100    4501.5200   
9597147.9500 5145740.1900    4059.3600 9597147.9500 5145740.1900    4509.8500   
9597315.0200 5145907.2700    4052.9500 9597315.0200 5145907.2700    4513.5100   
9597482.1000 5146074.3500    4047.1200 9597482.1000 5146074.3500    4513.0100   
9597649.1800 5146241.4300    4049.4900 9597649.1800 5146241.4300    4509.3000   
9597816.2600 5146408.5100    4059.4000 9597816.2600 5146408.5100    4504.8500   
9597983.3400 5146575.5900    4068.3100 9597983.3400 5146575.5900    4501.0800   
9598150.4200 5146742.6700    4073.5400 9598150.4200 5146742.6700    4496.9600   
9598317.5000 5146909.7500    4072.4300 9598317.5000 5146909.7500    4491.6700   
9598484.5800 5147076.8300    4064.3800 9598484.5800 5147076.8300    4485.2500   
9598651.6600 5147243.9100    4053.1300 9598651.6600 5147243.9100    4477.5500   
9598818.7400 5147410.9900    4041.8200 9598818.7400 5147410.9900    4468.8600   
9598985.8200 5147578.0700    4031.7500 9598985.8200 5147578.0700    4461.4900   
9599152.9000 5147745.1500    4026.6000 9599152.9000 5147745.1500    4458.0500   
9595978.1300 5144236.7400    4041.6700 9595978.1300 5144236.7400    4484.3700   
9596145.2100 5144403.8200    4042.1800 9596145.2100 5144403.8200    4482.4700   
9596312.2800 5144570.9000    4041.0900 9596312.2800 5144570.9000    4478.4100   
9596479.3600 5144737.9800    4039.9700 9596479.3600 5144737.9800    4474.8900   
9596646.4400 5144905.0600    4039.1400 9596646.4400 5144905.0600    4475.5100   
9596813.5200 5145072.1400    4040.6700 9596813.5200 5145072.1400    4482.7300   
9596980.6000 5145239.2200    4045.5700 9596980.6000 5145239.2200    4493.9600   
9597147.6800 5145406.3000    4052.3700 9597147.6800 5145406.3000    4503.8000   
9597314.7600 5145573.3800    4056.0400 9597314.7600 5145573.3800    4508.4700   
9597481.8400 5145740.4600    4055.2000 9597481.8400 5145740.4600    4506.9400   
9597648.9200 5145907.5400    4052.2600 9597648.9200 5145907.5400    4502.3200   
9597816.0000 5146074.6200    4054.4200 9597816.0000 5146074.6200    4497.4200   
9597983.0800 5146241.7000    4059.9900 9597983.0800 5146241.7000    4493.7300   
9598150.1600 5146408.7700    4065.9600 9598150.1600 5146408.7700    4490.7400   
9598317.2400 5146575.8500    4072.4400 9598317.2400 5146575.8500    4488.1500   
9598484.3200 5146742.9300    4076.8800 9598484.3200 5146742.9300    4485.9500   
9598651.4000 5146910.0100    4072.8800 9598651.4000 5146910.0100    4482.9600   
9598818.4800 5147077.0900    4061.4200 9598818.4800 5147077.0900    4478.0800   
9598985.5600 5147244.1700    4047.2500 9598985.5600 5147244.1700    4471.5100   
9599152.6300 5147411.2500    4034.8300 9599152.6300 5147411.2500    4465.2800   
9599319.7100 5147578.3300    4027.8800 9599319.7100 5147578.3300    4461.8500   
9596144.9400 5144069.9300    4043.6000 9596144.9400 5144069.9300    4483.6900   
9596312.0200 5144237.0100    4044.0100 9596312.0200 5144237.0100    4482.4200   
9596479.1000 5144404.0900    4043.2100 9596479.1000 5144404.0900    4479.9800   
9596646.1800 5144571.1600    4043.2100 9596646.1800 5144571.1600    4477.9700   
9596813.2600 5144738.2400    4043.5100 9596813.2600 5144738.2400    4479.7500   
9596980.3400 5144905.3200    4042.4700 9596980.3400 5144905.3200    4489.6700   
9597147.4200 5145072.4000    4040.9900 9597147.4200 5145072.4000    4501.3800   
9597314.5000 5145239.4800    4042.2200 9597314.5000 5145239.4800    4508.8100   
9597481.5800 5145406.5600    4047.7500 9597481.5800 5145406.5600    4508.8800   
9597648.6600 5145573.6400    4052.4500 9597648.6600 5145573.6400    4501.8600   