-- Format      : ECLIPSE keywords (grid geometry and properties) (ASCII)
-- Exported by : Petrel 2011.2.6 (64-bit) Schlumberger
-- User name   : ag27710
-- Date        : Tuesday, April 23 2013 08:21:11
-- Project     : 
-- Grid        : GRID_FINE.GRDECL

PINCH                                  -- Generated : Petrel
  /

NOECHO                                 -- Generated : Petrel

GRIDUNIT                               -- Generated : Petrel
  METRES MAP /

SPECGRID                               -- Generated : Petrel
  23 57 30 1 F /

COORDSYS                               -- Generated : Petrel
  1 30 /

COORD                                  -- Generated : Petrel
  366264.44 3343777.75 3868.83 366264.44 3343777.75 3931.47 366284.41
  3343759.75 3868.86 366284.41 3343759.75 3931.44 366304.38 3343741.50
  3868.70 366304.38 3343741.50 3931.25 366324.34 3343723.25 3868.37
  366324.34 3343723.25 3930.90 366344.31 3343705.25 3867.87 366344.31
  3343705.25 3930.37 366364.28 3343687.00 3867.36 366364.28 3343687.00
  3929.87 366384.25 3343669.00 3867.21 366384.25 3343669.00 3929.72
  366404.22 3343650.75 3867.13 366404.22 3343650.75 3929.66 366425.09
  3343632.00 3867.08 366423.63 3343633.00 3929.65 366445.13 3343614.00
  3867.11 366443.50 3343615.00 3929.64 366465.22 3343595.75 3867.09
  366463.38 3343596.75 3929.76 366485.25 3343577.50 3867.12 366483.25
  3343578.75 3930.00 366505.31 3343559.25 3867.21 366503.13 3343560.50
  3930.16 366525.38 3343541.00 3867.32 366522.97 3343542.50 3930.32
  366545.41 3343523.00 3867.41 366542.84 3343524.50 3930.37 366565.47
  3343504.75 3867.41 366562.69 3343506.50 3930.46 366585.50 3343486.50
  3867.26 366582.56 3343488.25 3930.57 366605.56 3343468.25 3866.82
  366602.41 3343470.25 3930.53 366625.63 3343450.25 3866.25 366622.28
  3343452.25 3930.12 366645.72 3343432.00 3865.58 366642.16 3343434.00
  3929.64 366665.78 3343413.75 3864.88 366662.03 3343416.00 3929.18
  366685.84 3343395.50 3864.35 366681.91 3343397.75 3928.62 366705.88
  3343377.25 3864.22 366701.75 3343379.75 3928.71 366731.06 3343356.00
  3864.78 366726.72 3343358.75 3929.32 366193.22 3343702.50 3869.32
  366193.22 3343702.50 3932.44 366213.66 3343684.50 3869.30 366213.66
  3343684.50 3932.37 366234.16 3343666.75 3869.31 366234.16 3343666.75
  3932.33 366254.66 3343649.00 3869.21 366254.66 3343649.00 3932.19
  366275.22 3343631.00 3868.96 366275.22 3343631.00 3931.91 366295.78
  3343613.25 3868.83 366295.78 3343613.25 3931.77 366316.38 3343595.50
  3868.72 366316.38 3343595.50 3931.67 366337.75 3343577.00 3868.66
  366336.41 3343577.75 3931.69 366358.53 3343558.75 3868.60 366357.00
  3343559.75 3931.59 366379.38 3343540.50 3868.56 366377.66 3343541.50
  3931.58 366400.28 3343522.00 3868.53 366398.38 3343523.25 3931.60
  366421.31 3343503.75 3868.47 366419.22 3343505.00 3931.61 366442.50
  3343485.25 3868.42 366440.22 3343486.50 3931.66 366463.81 3343466.75
  3868.28 366461.38 3343468.25 3931.61 366485.28 3343448.00 3868.10
  366482.66 3343449.75 3931.51 366506.84 3343429.50 3867.91 366504.06
  3343431.00 3931.44 366528.44 3343410.75 3867.67 366525.50 3343412.50
  3931.33 366550.03 3343392.00 3867.38 366546.97 3343393.75 3931.18
  366571.63 3343373.25 3867.10 366568.41 3343375.25 3931.06 366593.13
  3343354.50 3866.61 366589.75 3343356.50 3930.73 366614.56 3343335.75
  3865.97 366611.06 3343338.00 3930.26 366635.97 3343317.25 3865.37
  366632.34 3343319.50 3929.79 366657.34 3343298.50 3864.96 366653.59
  3343300.75 3929.50 366678.69 3343280.00 3864.80 366674.81 3343282.25
  3929.65 366122.00 3343627.00 3869.50 366122.00 3343627.00 3933.17
  366142.97 3343609.50 3869.65 366142.97 3343609.50 3933.25 366163.97
  3343592.00 3869.91 366163.97 3343592.00 3933.46 366185.06 3343574.50
  3870.21 366185.06 3343574.50 3933.71 366206.19 3343557.00 3870.54
  366206.19 3343557.00 3934.01 366227.38 3343539.50 3870.54 366227.38
  3343539.50 3933.99 366248.59 3343522.00 3870.47 366248.59 3343522.00
  3933.90 366270.59 3343503.50 3870.45 366269.19 3343504.50 3933.83
  366292.06 3343485.25 3870.35 366290.47 3343486.25 3933.80 366313.66
  3343467.00 3870.23 366311.88 3343468.00 3933.71 366335.44 3343448.50
  3870.06 366333.44 3343449.75 3933.58 366357.44 3343430.00 3869.87
  366355.28 3343431.25 3933.44 366379.75 3343411.25 3869.59 366377.41
  3343412.50 3933.24 366402.38 3343392.25 3869.28 366399.88 3343393.75
  3932.98 366425.22 3343373.25 3868.97 366422.56 3343374.75 3932.80
  366448.31 3343354.00 3868.62 366445.47 3343355.75 3932.56 366471.44
  3343334.75 3868.32 366468.50 3343336.50 3932.38 366494.56 3343315.50
  3868.06 366491.53 3343317.50 3932.27 366517.59 3343296.25 3867.89
  366514.47 3343298.25 3932.21 366540.53 3343277.00 3867.53 366537.28
  3343279.00 3932.04 366563.34 3343258.00 3867.02 366560.00 3343260.00
  3931.70 366586.03 3343238.75 3866.36 366582.63 3343241.00 3931.21
  366608.72 3343219.75 3865.62 366605.28 3343222.00 3930.66 366631.38
  3343201.00 3865.13 366627.91 3343203.00 3930.35 366050.78 3343551.75
  3869.44 366050.78 3343551.75 3933.71 366072.25 3343534.75 3869.87
  366072.25 3343534.75 3934.06 366093.88 3343517.50 3870.35 366093.88
  3343517.50 3934.47 366115.53 3343500.50 3870.91 366115.53 3343500.50
  3934.98 366137.28 3343483.25 3871.45 366137.28 3343483.25 3935.47
  366159.06 3343466.00 3871.72 366159.06 3343466.00 3935.70 366180.91
  3343448.50 3871.73 366180.91 3343448.50 3935.69 366203.59 3343430.25
  3871.70 366202.13 3343431.00 3935.68 366225.75 3343412.00 3871.64
  366224.09 3343413.00 3935.60 366248.13 3343393.50 3871.55 366246.28
  3343394.75 3935.44 366270.75 3343375.00 3871.29 366268.69 3343376.00
  3935.30 366293.75 3343356.00 3871.02 366291.50 3343357.50 3935.07
  366317.19 3343337.00 3870.75 366314.78 3343338.50 3934.78 366341.06
  3343317.75 3870.28 366338.47 3343319.25 3934.47 366365.28 3343298.25
  3869.89 366362.53 3343300.00 3934.17 366389.81 3343278.75 3869.50
  366386.94 3343280.25 3933.89 366414.44 3343259.00 3869.22 366411.50
  3343260.75 3933.72 366439.06 3343239.00 3869.02 366436.06 3343241.00
  3933.65 366463.56 3343219.25 3868.91 366460.50 3343221.25 3933.69
  366487.88 3343199.50 3868.74 366484.75 3343201.50 3933.68 366512.03
  3343180.00 3868.22 366508.84 3343182.00 3933.33 366535.97 3343160.50
  3867.40 366532.78 3343162.50 3932.68 366559.91 3343141.25 3866.40
  366556.72 3343143.25 3931.86 366583.84 3343122.00 3865.66 366580.66
  3343123.75 3931.31 365979.38 3343476.50 3869.43 365979.38 3343476.50
  3934.32 366001.56 3343459.75 3869.95 366001.56 3343459.75 3934.76
  366023.84 3343443.25 3870.51 366023.84 3343443.25 3935.24 366046.16
  3343426.50 3871.15 366046.16 3343426.50 3935.81 366068.56 3343409.50
  3871.82 366068.56 3343409.50 3936.42 366090.94 3343392.50 3872.34
  366090.94 3343392.50 3936.89 366114.06 3343374.75 3872.43 366112.69
  3343375.50 3936.96 366136.72 3343357.00 3872.48 366135.19 3343357.75
  3937.03 366159.63 3343338.75 3872.53 366157.91 3343339.75 3936.99
  366182.78 3343320.00 3872.48 366180.88 3343321.25 3936.99 366206.31
  3343301.25 3872.35 366204.19 3343302.50 3936.88 366230.28 3343282.00
  3872.23 366227.97 3343283.50 3936.80 366254.84 3343262.75 3871.94
  366252.38 3343264.25 3936.56 366279.91 3343243.25 3871.68 366277.28
  3343244.75 3936.36 366305.47 3343223.25 3871.32 366302.69 3343225.00
  3936.08 366331.38 3343203.25 3871.01 366328.47 3343205.00 3935.88
  366357.47 3343183.00 3870.71 366354.53 3343184.75 3935.68 366383.53
  3343162.50 3870.48 366380.56 3343164.50 3935.58 366409.47 3343142.25
  3870.32 366406.47 3343144.25 3935.56 366435.19 3343122.25 3870.07
  366432.13 3343124.00 3935.46 366460.59 3343102.25 3869.32 366457.56
  3343104.00 3934.87 366485.78 3343082.50 3868.26 366482.72 3343084.25
  3933.98 366510.88 3343062.75 3867.06 366507.88 3343064.50 3932.97
  366535.91 3343043.25 3866.24 366532.91 3343045.00 3932.33 365907.97
  3343401.25 3869.49 365907.97 3343401.25 3935.04 365930.97 3343385.25
  3869.91 365930.97 3343385.25 3935.35 365954.03 3343369.25 3870.38
  365954.03 3343369.25 3935.74 365976.97 3343352.75 3870.92 365976.97
  3343352.75 3936.20 365999.94 3343336.00 3871.57 365999.94 3343336.00
  3936.78 366022.91 3343319.00 3872.24 366022.91 3343319.00 3937.40
  366046.69 3343301.50 3872.29 366045.28 3343302.25 3937.41 366070.06
  3343283.75 3872.49 366068.50 3343284.50 3937.57 366093.69 3343265.25
  3872.57 366091.97 3343266.25 3937.64 366117.72 3343246.50 3872.68
  366115.78 3343247.50 3937.74 366142.13 3343227.25 3872.78 366139.97
  3343228.75 3937.86 366167.09 3343208.00 3872.74 366164.75 3343209.50
  3937.85 366192.75 3343188.25 3872.68 366190.25 3343189.75 3937.82
  366219.03 3343168.50 3872.56 366216.38 3343170.00 3937.76 366245.88
  3343148.00 3872.30 366243.06 3343149.75 3937.57 366273.16 3343127.50
  3872.11 366270.22 3343129.25 3937.46 366300.59 3343106.75 3871.76
  366297.66 3343108.50 3937.22 366328.06 3343086.00 3871.53 366325.13
  3343087.75 3937.11 366355.38 3343065.25 3871.30 366352.44 3343067.00
  3937.01 366382.38 3343044.75 3871.04 366379.41 3343046.50 3936.89
  366409.06 3343024.50 3869.97 366406.09 3343026.25 3935.98 366435.38
  3343004.25 3868.76 366432.44 3343006.00 3934.93 366461.59 3342984.50
  3867.52 366458.66 3342986.25 3933.93 366487.69 3342964.50 3866.67
  366484.81 3342966.25 3933.19 365836.56 3343326.00 3869.50 365836.56
  3343326.00 3935.72 365860.72 3343311.50 3869.72 365860.72 3343311.50
  3935.82 365884.44 3343296.00 3870.07 365884.44 3343296.00 3936.07
  365907.97 3343279.75 3870.38 365907.97 3343279.75 3936.29 365931.47
  3343263.00 3870.63 365931.47 3343263.00 3936.47 365955.06 3343246.00
  3870.84 365955.06 3343246.00 3936.61 365979.56 3343228.25 3870.85
  365978.09 3343229.00 3936.62 366003.66 3343210.25 3870.99 366002.03
  3343211.25 3936.67 366028.13 3343191.75 3871.13 366026.31 3343192.75
  3936.78 366053.00 3343172.75 3871.27 366051.00 3343174.00 3936.95
  366078.38 3343153.25 3871.50 366076.16 3343154.75 3937.14 366104.38
  3343133.75 3871.63 366101.94 3343135.25 3937.28 366131.13 3343113.75
  3871.77 366128.56 3343115.25 3937.45 366158.56 3343093.25 3871.75
  366155.88 3343095.00 3937.48 366186.66 3343072.75 3871.73 366183.81
  3343074.25 3937.52 366215.25 3343051.75 3871.61 366212.28 3343053.50
  3937.42 366244.03 3343030.50 3871.36 366241.06 3343032.25 3937.32
  366272.78 3343009.25 3871.11 366269.88 3343011.00 3937.18 366301.38
  3342988.00 3870.84 366298.44 3342990.00 3937.03 366329.63 3342967.25
  3870.64 366326.66 3342969.00 3936.97 366357.47 3342946.50 3869.84
  366354.50 3342948.50 3936.32 366384.91 3342926.25 3868.81 366381.97
  3342928.00 3935.45 366412.13 3342906.00 3867.77 366409.22 3342908.00
  3934.56 366439.19 3342886.25 3866.93 366436.28 3342888.00 3933.89
  365767.06 3343255.00 3869.27 365767.06 3343255.00 3936.16 365791.03
  3343239.25 3869.42 365791.03 3343239.25 3936.19 365815.06 3343223.25
  3869.66 365815.06 3343223.25 3936.32 365839.06 3343207.00 3869.76
  365839.06 3343207.00 3936.32 365863.16 3343190.00 3869.60 365863.16
  3343190.00 3936.07 365887.41 3343173.00 3869.17 365887.41 3343173.00
  3935.57 365912.69 3343155.25 3869.15 365911.13 3343156.00 3935.49
  365937.59 3343137.00 3869.20 365935.88 3343138.00 3935.49 365962.88
  3343118.25 3869.32 365961.03 3343119.25 3935.57 365988.72 3343099.00
  3869.52 365986.63 3343100.25 3935.75 366015.09 3343079.25 3869.70
  366012.81 3343080.50 3935.91 366042.16 3343059.25 3869.89 366039.69
  3343060.75 3936.11 366070.06 3343038.75 3870.10 366067.44 3343040.25
  3936.33 366098.69 3343018.00 3870.26 366095.91 3343019.75 3936.53
  366128.00 3342997.00 3870.32 366125.09 3342998.75 3936.64 366157.81
  3342975.50 3870.42 366154.81 3342977.25 3936.64 366187.84 3342954.00
  3870.26 366184.84 3342955.75 3936.61 366217.84 3342932.25 3869.94
  366214.88 3342934.25 3936.51 366247.66 3342910.75 3869.74 366244.66
  3342912.75 3936.42 366277.06 3342889.50 3869.56 366274.06 3342891.50
  3936.34 366306.00 3342868.75 3869.12 366303.00 3342870.50 3936.06
  366334.44 3342848.25 3868.51 366331.44 3342850.00 3935.60 366362.63
  3342828.00 3867.86 366359.63 3342829.75 3935.10 366390.63 3342807.75
  3867.23 366387.63 3342809.50 3934.62 365697.25 3343184.25 3868.81
  365697.25 3343184.25 3936.39 365721.47 3343167.75 3869.05 365721.47
  3343167.75 3936.49 365745.81 3343151.25 3869.24 365745.81 3343151.25
  3936.57 365770.31 3343134.50 3869.27 365770.31 3343134.50 3936.49
  365795.03 3343117.50 3869.09 365795.03 3343117.50 3936.21 365819.94
  3343100.25 3868.75 365819.94 3343100.25 3935.79 365846.03 3343082.25
  3868.74 365844.44 3343083.00 3935.70 365871.81 3343063.75 3868.75
  365870.06 3343064.75 3935.65 365898.06 3343044.75 3868.84 365896.13
  3343045.75 3935.69 365924.91 3343025.00 3868.94 365922.78 3343026.25
  3935.76 365952.38 3343005.00 3869.13 365950.03 3343006.25 3935.92
  365980.53 3342984.50 3869.21 365978.00 3342986.00 3935.99 366009.56
  3342963.75 3869.32 366006.91 3342965.25 3936.12 366039.41 3342942.50
  3869.37 366036.59 3342944.25 3936.17 366069.91 3342921.00 3869.33
  366066.94 3342922.75 3936.18 366100.94 3342899.25 3869.23 366097.88
  3342901.00 3936.14 366132.16 3342877.25 3869.04 366129.09 3342879.25
  3936.03 366163.31 3342855.25 3868.82 366160.28 3342857.25 3935.90
  366194.22 3342833.50 3868.59 366191.16 3342835.50 3935.76 366224.72
  3342812.00 3868.36 366221.63 3342814.00 3935.66 366254.63 3342790.75
  3868.16 366251.53 3342792.75 3935.57 366284.03 3342770.25 3867.99
  366280.91 3342772.00 3935.54 366313.09 3342749.75 3867.87 366309.94
  3342751.50 3935.56 366341.94 3342729.50 3867.65 366338.78 3342731.50
  3935.48 365627.09 3343113.75 3868.20 365627.09 3343113.75 3936.48
  365651.69 3343097.00 3868.67 365651.69 3343097.00 3936.81 365676.53
  3343080.00 3868.91 365676.53 3343080.00 3936.91 365701.63 3343063.00
  3869.06 365701.63 3343063.00 3936.95 365727.00 3343045.50 3869.14
  365727.00 3343045.50 3936.92 365752.72 3343027.75 3869.26 365752.72
  3343027.75 3936.94 365779.69 3343009.50 3869.32 365778.06 3343010.25
  3936.81 365806.44 3342990.75 3869.37 365804.63 3342991.75 3936.89
  365833.72 3342971.00 3869.31 365831.75 3342972.25 3936.87 365861.66
  3342951.00 3869.40 365859.47 3342952.25 3936.81 365890.25 3342930.50
  3869.37 365887.84 3342932.00 3936.75 365919.59 3342909.75 3869.25
  365917.00 3342911.25 3936.61 365949.81 3342888.25 3869.11 365947.09
  3342890.00 3936.47 365980.81 3342866.75 3868.89 365977.97 3342868.50
  3936.27 366012.47 3342844.75 3868.68 366009.47 3342846.50 3936.08
  366044.66 3342822.75 3868.39 366041.56 3342824.50 3935.84 366077.00
  3342800.25 3868.06 366073.88 3342802.25 3935.57 366109.22 3342778.00
  3867.75 366106.13 3342780.00 3935.33 366141.16 3342756.00 3867.37
  366138.03 3342758.00 3935.12 366172.63 3342734.25 3867.19 366169.44
  3342736.25 3934.97 366203.44 3342713.00 3867.23 366200.22 3342715.00
  3935.12 366233.69 3342692.00 3867.52 366230.44 3342694.00 3935.53
  366263.59 3342671.50 3867.92 366260.31 3342673.50 3936.00 366293.25
  3342651.25 3868.13 366289.91 3342653.25 3936.40 365555.91 3343044.25
  3867.72 365555.91 3343044.25 3936.73 365581.44 3343026.75 3868.43
  365581.44 3343026.75 3937.28 365607.09 3343009.50 3868.77 365607.09
  3343009.50 3937.48 365632.94 3342991.75 3869.10 365632.94 3342991.75
  3937.67 365659.16 3342974.00 3869.41 365659.16 3342974.00 3937.86
  365685.75 3342955.75 3869.71 365685.75 3342955.75 3938.04 365713.72
  3342936.75 3869.82 365712.03 3342937.75 3938.02 365741.53 3342917.50
  3869.93 365739.69 3342918.75 3938.07 365769.97 3342897.50 3869.95
  365767.94 3342898.75 3938.01 365799.06 3342877.00 3869.88 365796.84
  3342878.25 3937.90 365828.88 3342856.00 3869.71 365826.44 3342857.50
  3937.68 365859.41 3342834.50 3869.45 365856.81 3342836.25 3937.39
  365890.81 3342812.75 3869.11 365888.06 3342814.50 3937.04 365923.00
  3342790.75 3868.69 365920.13 3342792.50 3936.62 365955.81 3342768.50
  3868.25 365952.78 3342770.25 3936.20 365989.06 3342745.75 3867.74
  365985.94 3342747.75 3935.73 366022.44 3342723.25 3867.23 366019.28
  3342725.25 3935.27 366055.63 3342700.75 3866.76 366052.50 3342702.75
  3934.89 366088.53 3342678.50 3866.40 366085.31 3342680.50 3934.59
  366120.84 3342656.50 3866.17 366117.56 3342658.75 3934.45 366152.50
  3342635.00 3866.62 366149.13 3342637.25 3935.00 366183.53 3342614.00
  3867.37 366180.09 3342616.25 3935.85 366214.16 3342593.50 3868.17
  366210.66 3342595.50 3936.71 366244.53 3342573.00 3868.73 366241.00
  3342575.00 3937.45 365484.19 3342975.25 3867.64 365484.19 3342975.25
  3937.42 365510.69 3342957.50 3868.41 365510.69 3342957.50 3938.02
  365537.28 3342939.50 3868.86 365537.28 3342939.50 3938.29 365564.09
  3342921.25 3869.33 365564.09 3342921.25 3938.61 365591.31 3342902.75
  3869.77 365591.31 3342902.75 3938.90 365619.72 3342883.75 3870.06
  365618.25 3342884.50 3939.06 365648.13 3342864.50 3870.27 365646.41
  3342865.50 3939.16 365677.16 3342844.50 3870.48 365675.28 3342845.75
  3939.23 365706.81 3342824.00 3870.53 365704.75 3342825.25 3939.22
  365737.22 3342802.75 3870.59 365734.94 3342804.25 3939.22 365768.25
  3342781.25 3870.37 365765.78 3342782.75 3938.94 365800.06 3342759.25
  3870.12 365797.38 3342761.00 3938.66 365832.63 3342737.00 3869.68
  365829.84 3342738.75 3938.19 365865.94 3342714.50 3869.12 365863.00
  3342716.25 3937.76 365899.81 3342691.75 3868.70 365896.75 3342693.50
  3937.02 365934.09 3342668.75 3868.03 365930.91 3342670.75 3936.36
  365968.41 3342645.75 3867.16 365965.19 3342648.00 3935.76 366002.53
  3342623.00 3866.59 365999.28 3342625.25 3935.24 366036.25 3342600.75
  3866.21 366032.94 3342602.75 3934.92 366069.38 3342578.75 3865.98
  366065.94 3342580.75 3934.77 366101.75 3342557.00 3866.80 366098.19
  3342559.25 3935.68 366133.47 3342536.00 3867.78 366129.81 3342538.25
  3936.76 366164.81 3342515.25 3868.70 366161.03 3342517.50 3937.79
  366195.91 3342494.75 3869.45 366192.03 3342497.00 3938.65 365411.63
  3342907.25 3868.10 365411.63 3342907.25 3938.68 365439.31 3342888.75
  3868.74 365439.31 3342888.75 3939.13 365467.06 3342870.25 3869.19
  365467.06 3342870.25 3939.40 365495.03 3342851.50 3869.70 365495.03
  3342851.50 3939.73 365523.47 3342832.25 3870.24 365523.47 3342832.25
  3940.11 365553.19 3342812.25 3870.54 365551.69 3342813.25 3940.26
  365582.91 3342792.25 3870.92 365581.16 3342793.50 3940.50 365613.28
  3342771.75 3871.27 365611.38 3342773.00 3940.73 365644.38 3342750.25
  3871.59 365642.25 3342751.75 3940.94 365676.09 3342728.50 3871.77
  365673.75 3342730.00 3941.03 365708.47 3342706.00 3871.78 365705.94
  3342707.75 3940.94 365741.50 3342683.50 3871.60 365738.78 3342685.25
  3940.76 365775.28 3342660.75 3871.30 365772.44 3342662.50 3940.41
  365809.66 3342637.75 3870.74 365806.66 3342639.50 3939.87 365844.56
  3342614.50 3870.10 365841.41 3342616.50 3939.24 365879.75 3342591.25
  3869.36 365876.50 3342593.25 3938.52 365914.94 3342568.25 3868.61
  365911.66 3342570.25 3937.79 365949.88 3342545.25 3868.02 365946.53
  3342547.50 3937.25 365984.38 3342522.75 3867.56 365980.94 3342525.00
  3936.85 366018.19 3342500.50 3867.52 366014.59 3342502.75 3936.86
  366051.25 3342479.00 3868.04 366047.50 3342481.25 3937.46 366083.63
  3342457.75 3868.78 366079.69 3342460.25 3938.29 366115.59 3342437.00
  3869.55 366111.47 3342439.50 3939.15 366147.31 3342416.25 3870.26
  366143.00 3342419.00 3939.95 365338.38 3342840.00 3869.11 365338.38
  3342840.00 3940.54 365367.25 3342821.00 3869.52 365367.25 3342821.00
  3940.74 365396.31 3342801.75 3869.87 365396.31 3342801.75 3940.89
  365425.69 3342782.25 3870.22 365425.69 3342782.25 3941.04 365455.63
  3342762.25 3870.60 365455.63 3342762.25 3941.24 365486.84 3342741.25
  3870.99 365485.31 3342742.25 3941.45 365518.13 3342720.25 3871.56
  365516.34 3342721.50 3941.83 365550.00 3342698.75 3872.15 365548.03
  3342700.00 3942.32 365582.53 3342676.50 3872.73 365580.38 3342678.00
  3942.77 365615.72 3342653.75 3873.12 365613.34 3342655.25 3943.06
  365649.44 3342630.75 3873.35 365646.88 3342632.50 3943.08 365683.78
  3342607.50 3873.35 365681.03 3342609.50 3943.16 365718.75 3342584.25
  3873.12 365715.84 3342586.00 3942.91 365754.19 3342560.75 3872.68
  365751.13 3342562.75 3942.47 365790.06 3342537.00 3872.08 365786.81
  3342539.25 3941.89 365826.13 3342513.50 3871.36 365822.78 3342515.75
  3941.18 365862.13 3342490.25 3870.69 365858.69 3342492.25 3940.51
  365897.78 3342467.00 3870.12 365894.28 3342469.25 3939.97 365932.91
  3342444.50 3869.81 365929.34 3342446.75 3939.70 365967.34 3342422.25
  3869.85 365963.59 3342424.75 3939.78 366001.03 3342400.50 3869.97
  365997.06 3342403.00 3939.97 366034.00 3342379.50 3870.30 366029.81
  3342382.00 3940.37 366066.50 3342358.50 3870.71 366062.03 3342361.25
  3940.86 366098.72 3342338.00 3871.13 366093.97 3342340.75 3941.36
  365263.84 3342774.00 3870.73 365263.84 3342774.00 3943.04 365294.22
  3342754.50 3870.82 365294.22 3342754.50 3942.91 365324.91 3342734.25
  3871.01 365324.91 3342734.25 3942.87 365356.00 3342713.75 3871.15
  365356.00 3342713.75 3942.80 365387.66 3342692.75 3871.37 365387.66
  3342692.75 3942.82 365420.66 3342670.75 3871.74 365419.09 3342671.75
  3943.00 365453.63 3342648.50 3872.38 365451.81 3342649.75 3943.46
  365487.22 3342626.00 3873.15 365485.19 3342627.25 3944.00 365521.38
  3342602.75 3873.73 365519.16 3342604.25 3944.51 365556.03 3342579.00
  3874.21 365553.63 3342580.75 3944.88 365591.22 3342555.25 3874.36
  365588.59 3342557.00 3944.92 365626.88 3342531.25 3874.34 365624.03
  3342533.25 3944.85 365663.03 3342507.25 3873.98 365660.03 3342509.25
  3944.44 365699.53 3342483.25 3873.48 365696.38 3342485.25 3943.93
  365736.34 3342459.25 3872.91 365733.00 3342461.50 3943.30 365773.22
  3342435.50 3872.35 365769.75 3342437.75 3942.83 365809.91 3342411.75
  3871.91 365806.38 3342414.25 3942.39 365846.19 3342388.75 3871.65
  365842.56 3342391.00 3942.16 365881.88 3342366.00 3871.58 365878.13
  3342368.50 3942.13 365916.81 3342343.75 3871.81 365912.91 3342346.25
  3942.45 365951.03 3342322.25 3872.04 365946.88 3342324.75 3942.68
  365984.50 3342301.00 3872.07 365980.09 3342303.75 3942.77 366017.50
  3342280.25 3872.09 366012.78 3342283.00 3942.84 366050.22 3342259.50
  3872.12 366045.09 3342262.75 3942.93 365187.72 3342710.00 3872.94
  365187.72 3342710.00 3946.15 365220.09 3342689.25 3872.71 365220.09
  3342689.25 3945.68 365252.78 3342668.00 3872.71 365252.78 3342668.00
  3945.45 365285.94 3342646.00 3872.81 365285.94 3342646.00 3945.33
  365319.66 3342623.75 3873.04 365319.66 3342623.75 3945.34 365354.63
  3342600.25 3873.43 365353.03 3342601.25 3945.52 365389.53 3342577.00
  3873.94 365387.69 3342578.25 3945.83 365424.91 3342553.00 3874.62
  365422.88 3342554.50 3946.29 365460.75 3342528.75 3875.14 365458.50
  3342530.25 3946.70 365497.03 3342504.25 3875.53 365494.59 3342505.75
  3946.79 365533.69 3342479.50 3875.43 365531.00 3342481.25 3946.76
  365570.69 3342454.75 3875.00 365567.78 3342456.75 3946.26 365608.03
  3342430.00 3874.36 365604.94 3342432.25 3945.56 365645.59 3342405.50
  3873.70 365642.34 3342407.75 3944.87 365683.25 3342381.25 3873.11
  365679.81 3342383.50 3944.27 365720.88 3342357.00 3872.82 365717.31
  3342359.50 3944.00 365758.16 3342333.25 3872.74 365754.50 3342335.75
  3943.94 365794.97 3342310.00 3872.91 365791.22 3342312.50 3944.09
  365831.13 3342287.50 3873.12 365827.25 3342290.00 3944.40 365866.53
  3342265.25 3873.50 365862.47 3342267.75 3944.79 365901.16 3342243.50
  3873.92 365896.88 3342246.25 3945.25 365935.16 3342222.50 3873.77
  365930.63 3342225.25 3945.13 365968.66 3342201.75 3873.56 365963.78
  3342204.50 3944.95 366001.91 3342181.00 3873.32 365996.66 3342184.25
  3944.76 365109.78 3342648.25 3875.88 365109.78 3342648.25 3949.97
  365144.66 3342625.75 3875.24 365144.66 3342625.75 3949.10 365179.88
  3342602.50 3874.91 365179.88 3342602.50 3948.53 365215.50 3342579.00
  3874.85 365215.50 3342579.00 3948.24 365251.53 3342555.00 3875.15
  365251.53 3342555.00 3948.30 365288.75 3342530.00 3875.20 365287.09
  3342531.25 3948.26 365325.69 3342505.25 3875.71 365323.81 3342506.50
  3948.59 365363.03 3342480.00 3876.54 365360.94 3342481.50 3949.08
  365400.66 3342454.75 3877.08 365398.38 3342456.25 3949.46 365438.59
  3342429.00 3877.44 365436.06 3342430.75 3949.68 365476.72 3342403.50
  3877.26 365473.97 3342405.50 3949.38 365515.03 3342378.00 3876.56
  365512.06 3342380.00 3948.61 365553.53 3342352.50 3875.72 365550.38
  3342354.75 3947.73 365592.09 3342327.50 3874.75 365588.75 3342329.75
  3946.71 365630.56 3342302.75 3874.17 365627.06 3342305.25 3946.04
  365668.84 3342278.50 3873.87 365665.16 3342281.00 3945.83 365706.69
  3342254.75 3873.92 365702.88 3342257.25 3945.91 365743.94 3342231.25
  3874.17 365740.06 3342234.00 3946.16 365780.50 3342208.75 3874.50
  365776.50 3342211.25 3946.51 365816.34 3342186.50 3874.88 365812.16
  3342189.25 3946.92 365851.44 3342165.00 3875.13 365847.06 3342167.75
  3947.19 365885.91 3342143.75 3875.12 365881.28 3342146.75 3947.21
  365920.00 3342123.00 3874.99 365915.06 3342126.00 3947.08 365953.81
  3342102.50 3874.77 365948.56 3342105.50 3946.89 365030.06 3342588.75
  3879.60 365030.06 3342588.75 3954.52 365068.09 3342563.75 3878.45
  365068.09 3342563.75 3953.14 365106.25 3342538.25 3877.59 365106.25
  3342538.25 3952.05 365144.63 3342512.50 3876.98 365144.63 3342512.50
  3951.22 365183.28 3342486.75 3876.71 365183.28 3342486.75 3950.71
  365222.94 3342460.00 3876.93 365221.25 3342461.25 3950.98 365262.16
  3342433.50 3877.59 365260.22 3342435.00 3951.46 365301.53 3342407.00
  3878.52 365299.38 3342408.50 3951.97 365341.00 3342380.25 3879.35
  365338.66 3342382.00 3952.55 365380.63 3342353.50 3879.83 365378.03
  3342355.50 3952.84 365420.25 3342327.00 3879.53 365417.41 3342329.25
  3952.62 365459.88 3342300.75 3878.83 365456.81 3342303.00 3951.69
  365499.47 3342274.75 3877.71 365496.22 3342277.25 3950.57 365538.91
  3342249.25 3876.62 365535.50 3342251.75 3949.41 365578.13 3342224.25
  3875.76 365574.50 3342226.75 3948.54 365616.97 3342199.75 3875.38
  365613.16 3342202.25 3948.16 365655.28 3342175.75 3875.26 365651.34
  3342178.50 3948.07 365692.94 3342152.50 3875.34 365688.91 3342155.25
  3948.15 365729.91 3342129.75 3875.56 365725.75 3342132.50 3948.35
  365766.19 3342107.75 3875.81 365761.84 3342110.50 3948.64 365801.75
  3342086.00 3876.09 365797.22 3342089.00 3948.92 365836.78 3342065.00
  3876.27 365832.06 3342068.00 3949.09 365871.44 3342044.25 3876.37
  365866.50 3342047.25 3949.18 365905.94 3342023.50 3876.41 365900.75
  3342026.75 3949.22 364949.09 3342531.00 3884.08 364949.09 3342531.00
  3959.75 364990.59 3342502.75 3882.33 364990.59 3342502.75 3957.79
  365032.00 3342474.75 3880.82 365032.00 3342474.75 3956.06 365073.44
  3342446.75 3879.39 365073.44 3342446.75 3954.41 365114.94 3342418.50
  3878.96 365114.94 3342418.50 3953.75 365157.22 3342389.75 3879.38
  365155.50 3342391.25 3954.19 365198.84 3342361.75 3879.85 365196.81
  3342363.25 3954.62 365240.34 3342333.75 3880.80 365238.13 3342335.25
  3954.97 365281.78 3342305.50 3881.61 365279.34 3342307.50 3955.60
  365323.09 3342277.75 3882.07 365320.41 3342279.75 3955.92 365364.19
  3342250.25 3881.69 365361.25 3342252.50 3955.43 365405.06 3342223.25
  3880.84 365401.91 3342225.75 3954.50 365445.72 3342196.75 3879.48
  365442.38 3342199.25 3953.14 365486.00 3342170.75 3878.22 365482.41
  3342173.25 3951.85 365525.84 3342145.25 3877.32 365522.03 3342148.00
  3950.91 365565.13 3342120.75 3876.74 365561.16 3342123.50 3950.34
  365603.84 3342096.75 3876.49 365599.72 3342099.50 3950.10 365641.88
  3342073.25 3876.37 365637.63 3342076.25 3950.00 365679.25 3342050.75
  3876.41 365674.88 3342053.75 3950.03 365715.97 3342028.75 3876.64
  365711.41 3342031.75 3950.26 365752.09 3342007.25 3876.97 365747.38
  3342010.25 3950.56 365787.69 3341986.00 3877.35 365782.84 3341989.25
  3950.91 365823.00 3341965.25 3877.74 365818.03 3341968.50 3951.27
  365858.13 3341944.75 3878.16 365853.06 3341947.75 3951.66 364867.81
  3342473.75 3889.22 364867.81 3342473.75 3965.53 364912.56 3342442.75
  3886.80 364912.56 3342442.75 3962.92 364957.25 3342412.00 3884.87
  364957.25 3342412.00 3960.80 365001.88 3342381.25 3883.37 365001.88
  3342381.25 3959.09 365046.41 3342350.75 3882.61 365046.41 3342350.75
  3958.11 365091.50 3342319.75 3882.64 365089.72 3342321.25 3958.01
  365135.69 3342289.75 3883.01 365133.59 3342291.25 3958.11 365179.47
  3342260.00 3883.60 365177.16 3342261.75 3958.48 365222.88 3342230.50
  3884.03 365220.31 3342232.50 3958.77 365265.88 3342201.50 3884.15
  365263.09 3342203.75 3958.55 365308.44 3342173.25 3883.51 365305.38
  3342175.50 3957.83 365350.56 3342145.25 3881.89 365347.28 3342147.75
  3956.30 365392.19 3342118.25 3880.43 365388.69 3342120.75 3954.87
  365433.16 3342091.75 3879.16 365429.44 3342094.50 3953.51 365473.50
  3342066.25 3878.27 365469.53 3342069.25 3952.62 365513.19 3342041.50
  3877.74 365509.03 3342044.50 3952.01 365552.22 3342017.50 3877.35
  365547.88 3342020.50 3951.66 365590.63 3341994.25 3877.14 365586.13
  3341997.25 3951.48 365628.44 3341971.75 3877.10 365623.78 3341974.75
  3951.48 365665.66 3341949.75 3877.38 365660.84 3341953.00 3951.74
  365702.38 3341928.25 3877.83 365697.41 3341931.50 3952.16 365738.59
  3341907.25 3878.46 365733.56 3341910.50 3952.74 365774.53 3341886.50
  3879.14 365769.53 3341889.50 3953.36 365810.34 3341866.00 3879.92
  365805.41 3341869.00 3954.07 364786.19 3342417.00 3894.86 364786.19
  3342417.00 3971.70 364834.19 3342383.25 3891.63 364834.19 3342383.25
  3968.30 364882.13 3342349.50 3889.13 364882.13 3342349.50 3965.62